/*--------------------------------*- C++ -*----------------------------------*\
| =========                 |                                                 |
| \\      /  F ield         | OpenFOAM: The Open Source CFD Toolbox           |
|  \\    /   O peration     | Version:  v1712                                 |
|   \\  /    A nd           | Web:      www.OpenFOAM.com                      |
|    \\/     M anipulation  |                                                 |
\*---------------------------------------------------------------------------*/
FoamFile
{
    version     2.0;
    format      ascii;
    class       volScalarField;
    location    "0.1";
    object      p;
}
// * * * * * * * * * * * * * * * * * * * * * * * * * * * * * * * * * * * * * //

dimensions      [0 2 -2 0 0 0 0];


internalField   nonuniform List<scalar> 
300
(
1.33592e-06
-0.0303602
-0.0320454
0.00889088
0.0919426
0.030488
1.48064e-05
0.00338105
0.0440948
0.120834
0.0312768
-0.00464225
-0.00177127
0.0380663
0.116394
-0.012865
-0.0492609
-0.0474227
-0.00932602
0.0791544
-0.101365
-0.132024
-0.13347
-0.108591
-0.0218744
0.206079
0.329548
0.451429
0.569871
0.685964
0.801486
0.918468
1.03899
1.16453
1.29343
0.227784
0.342685
0.457925
0.572642
0.686819
0.800942
0.915783
1.03201
1.15012
1.26985
0.23318
0.349612
0.462545
0.575061
0.687437
0.799724
0.912207
1.02501
1.13892
1.25855
0.234624
0.358671
0.468308
0.577915
0.688139
0.798251
0.907851
1.01593
1.12305
1.24583
0.256106
0.384598
0.480199
0.582483
0.689375
0.797067
0.902739
1.0019
1.09103
1.21083
1.41391
1.50239
1.54653
1.54575
1.51526
1.3832
1.46598
1.5106
1.51527
1.4849
1.38174
1.4678
1.51347
1.51864
1.48322
1.4066
1.50589
1.55331
1.55936
1.52419
1.49325
1.59435
1.63163
1.63611
1.60729
-0.221865
-0.245353
-0.256654
-0.269367
-0.304268
-0.350762
-0.365035
-0.376279
-0.392202
-0.424083
-0.476172
-0.482999
-0.490183
-0.499475
-0.513347
-0.596217
-0.598818
-0.602963
-0.607984
-0.613072
-0.71174
-0.712769
-0.715388
-0.718503
-0.720552
-0.823675
-0.825108
-0.82745
-0.830317
-0.83263
-0.932222
-0.93618
-0.939055
-0.942928
-0.94901
-1.03734
-1.04668
-1.05007
-1.05623
-1.07365
-1.14044
-1.15858
-1.16025
-1.171
-1.2195
-1.25015
-1.27578
-1.26333
-1.26652
-1.35378
1.77114
1.74981
1.74841
1.74305
1.72149
1.89959
1.87391
1.86484
1.85791
1.84502
1.99533
1.98376
1.97777
1.97296
1.9668
2.09837
2.09396
2.09027
2.08711
2.08462
2.20773
2.20557
2.20259
2.19999
2.19867
2.32151
2.31833
2.3146
2.31139
2.30913
2.44028
2.43202
2.42614
2.42134
2.41552
2.56889
2.54705
2.53724
2.53047
2.51747
2.72039
2.66412
2.64772
2.64116
2.61692
2.8504
2.75618
2.74888
2.75781
2.72512
-1.39841
-1.41308
-1.35092
-1.27193
-1.19882
-1.66371
-1.61875
-1.47272
-1.29633
-1.10289
-2.18443
-1.93692
-1.64325
-1.3682
-1.09715
-3.26417
-2.3808
-1.79164
-1.41123
-1.09269
-5.1256
-2.83401
-1.7731
-1.32768
-1.02514
-0.93754
-0.528233
-0.1576
0.18678
0.523613
0.858559
1.19489
1.53941
1.91511
2.34462
-0.831488
-0.489772
-0.147303
0.18954
0.524558
0.858974
1.19363
1.53031
1.87505
2.22589
-0.797542
-0.471098
-0.138981
0.193452
0.526028
0.858396
1.19005
1.52046
1.84963
2.17475
-0.77967
-0.458472
-0.132144
0.196802
0.527237
0.857892
1.18728
1.51367
1.83558
2.15276
-0.738986
-0.439475
-0.125219
0.198773
0.527723
0.858138
1.18701
1.51079
1.82502
2.12666
2.64867
2.7387
2.8273
2.89597
2.87977
2.51702
2.73179
2.93405
3.10562
3.16671
2.48136
2.77454
3.09136
3.43795
3.73632
2.47037
2.81562
3.25447
3.93002
4.91375
2.42479
2.76539
3.29032
4.46166
6.86598
)
;

boundaryField
{
    movingWall
    {
        type            zeroGradient;
    }
    fixedWalls
    {
        type            zeroGradient;
    }
    frontAndBack
    {
        type            empty;
    }
}


// ************************************************************************* //
