/*--------------------------------*- C++ -*----------------------------------*\
| =========                 |                                                 |
| \\      /  F ield         | OpenFOAM: The Open Source CFD Toolbox           |
|  \\    /   O peration     | Version:  v1712                                 |
|   \\  /    A nd           | Web:      www.OpenFOAM.com                      |
|    \\/     M anipulation  |                                                 |
\*---------------------------------------------------------------------------*/
FoamFile
{
    version     2.0;
    format      ascii;
    class       surfaceScalarField;
    location    "0.1";
    object      phi;
}
// * * * * * * * * * * * * * * * * * * * * * * * * * * * * * * * * * * * * * //

dimensions      [0 3 -1 0 0 0 0];
oriented        oriented;


internalField   nonuniform List<scalar> 
540
(
-1.44838e-07
1.44827e-07
-7.3388e-07
5.89042e-07
-1.55979e-06
8.25905e-07
-2.39704e-06
8.37257e-07
6.49791e-07
-3.04683e-06
-5.97188e-07
7.42015e-07
-1.93529e-06
1.92714e-06
-3.63891e-06
2.52953e-06
-5.33352e-06
2.53187e-06
1.96401e-06
-6.64774e-06
-8.44507e-07
1.58652e-06
-2.5638e-06
3.64644e-06
-4.67144e-06
4.63716e-06
-6.73399e-06
4.59442e-06
3.48714e-06
-8.25712e-06
-8.57966e-07
2.44449e-06
-2.57686e-06
5.36533e-06
-4.65258e-06
6.71288e-06
-6.6609e-06
6.60273e-06
4.80244e-06
-7.97619e-06
-6.61971e-07
3.10646e-06
-1.99675e-06
6.70011e-06
-3.53779e-06
8.25392e-06
-4.85783e-06
7.92277e-06
-5.57844e-06
5.52304e-06
-3.39298e-06
3.46148e-07
-3.52246e-06
1.29481e-07
-3.55244e-06
2.99729e-08
-3.55282e-06
3.82216e-10
-3.55445e-06
1.62953e-09
-3.56645e-06
1.20019e-08
-3.58135e-06
1.48952e-08
-3.5674e-06
-1.3948e-08
-3.4509e-06
-1.16499e-07
-3.43902e-07
-3.107e-06
-7.34689e-06
1.0453e-06
-7.63219e-06
4.14777e-07
-7.72575e-06
1.23538e-07
-7.75022e-06
2.48478e-08
-7.75885e-06
1.02645e-08
-7.76638e-06
1.95274e-08
-7.75852e-06
7.04004e-09
-7.68094e-06
-9.15349e-08
-7.40531e-06
-3.92126e-07
-1.04795e-06
-6.70126e-06
-8.87151e-06
1.65969e-06
-9.05119e-06
5.9446e-07
-9.09539e-06
1.6774e-07
-9.10452e-06
3.39787e-08
-9.10626e-06
1.20019e-08
-9.10642e-06
1.96908e-08
-9.09939e-06
6.34883e-12
-9.05715e-06
-1.33774e-07
-8.87724e-06
-5.72038e-07
-1.67111e-06
-8.25409e-06
-7.92596e-06
1.60945e-06
-7.75528e-06
4.2378e-07
-7.67912e-06
9.15805e-08
-7.65598e-06
1.08375e-08
-7.6473e-06
3.31679e-09
-7.64092e-06
1.33174e-08
-7.64876e-06
7.84279e-09
-7.71065e-06
-7.18813e-08
-7.87231e-06
-4.1038e-07
-1.62164e-06
-7.92177e-06
-3.96899e-06
-3.54521e-06
-3.45363e-06
-3.44279e-06
-3.43947e-06
-3.42616e-06
-3.41831e-06
-3.49019e-06
-3.90057e-06
-5.52222e-06
-2.44466e-06
-6.62333e-07
-1.58661e-06
-8.58053e-07
-7.42081e-07
-8.4453e-07
-1.44865e-07
-5.97216e-07
-1.44865e-07
-5.36584e-06
-1.99775e-06
-3.64671e-06
-2.57719e-06
-1.92731e-06
-2.56393e-06
-5.89132e-07
-1.93539e-06
-7.33997e-07
-6.71306e-06
-3.53878e-06
-4.63727e-06
-4.65298e-06
-2.52961e-06
-4.67159e-06
-8.2599e-07
-3.63901e-06
-1.55999e-06
-6.60232e-06
-4.85823e-06
-4.59398e-06
-6.66132e-06
-2.53153e-06
-6.73404e-06
-8.37217e-07
-5.33332e-06
-2.39721e-06
-4.80161e-06
-5.57884e-06
-3.48555e-06
-7.97738e-06
-1.96253e-06
-8.25707e-06
-6.4931e-07
-6.64654e-06
-3.04652e-06
-3.42703e-07
3.44916e-06
-1.04505e-06
7.40246e-06
-1.66821e-06
8.87708e-06
-1.62052e-06
7.87509e-06
3.90252e-06
-1.13315e-07
3.56248e-06
-3.8502e-07
7.67417e-06
-5.64763e-07
9.05682e-06
-4.07026e-07
7.71735e-06
3.49549e-06
-7.02788e-09
3.5695e-06
-7.65757e-08
7.74371e-06
-1.18192e-07
9.09844e-06
-6.40807e-08
7.66324e-06
3.43141e-06
2.85964e-08
3.54091e-06
3.42775e-08
7.73803e-06
2.89139e-08
9.1038e-06
2.41408e-08
7.66801e-06
3.45555e-06
3.40748e-08
3.50683e-06
5.93829e-08
7.71273e-06
6.32643e-08
9.09992e-06
4.12091e-08
7.69007e-06
3.49676e-06
2.67059e-08
3.48013e-06
4.38439e-08
7.69559e-06
5.22343e-08
9.09153e-06
4.00392e-08
7.70227e-06
3.5368e-06
-1.25796e-09
3.48139e-06
-2.42531e-08
7.71858e-06
-9.59101e-09
9.07687e-06
2.38808e-08
7.66879e-06
3.56068e-06
-8.58186e-08
3.56721e-06
-2.21534e-07
7.8543e-06
-2.01553e-07
9.05689e-06
-4.50893e-08
7.51233e-06
3.51559e-06
-3.11985e-07
3.87919e-06
-7.23673e-07
8.26599e-06
-7.36804e-07
9.07002e-06
-3.05117e-07
7.08064e-06
3.21048e-06
-8.22466e-07
4.70166e-06
-1.82698e-06
9.2705e-06
-2.1058e-06
9.34884e-06
-1.38716e-06
6.362e-06
1.82332e-06
-1.6076e-06
-3.97124e-06
-1.65521e-06
-7.92976e-06
-1.04094e-06
-8.87134e-06
-3.44429e-07
-7.34305e-06
-3.39095e-06
-4.18766e-07
-3.55248e-06
-5.83454e-07
-7.76507e-06
-4.04071e-07
-9.05072e-06
-1.24851e-07
-7.62227e-06
-3.5158e-06
-8.00211e-08
-3.47246e-06
-1.44265e-07
-7.70083e-06
-1.00912e-07
-9.09408e-06
-1.96237e-08
-7.70356e-06
-3.53542e-06
1.26677e-08
-3.48512e-06
9.43824e-09
-7.6976e-06
1.64534e-08
-9.10109e-06
2.00611e-08
-7.70716e-06
-3.51536e-06
3.70364e-08
-3.52216e-06
5.42074e-08
-7.71477e-06
5.12334e-08
-9.09812e-06
3.13399e-08
-7.68727e-06
-3.48402e-06
4.01939e-08
-3.56235e-06
4.73272e-08
-7.72191e-06
3.9359e-08
-9.09015e-06
2.73148e-08
-7.67523e-06
-3.4567e-06
1.79384e-08
-3.58029e-06
-3.04353e-08
-7.67353e-06
-4.36696e-08
-9.07692e-06
-5.33146e-09
-7.71356e-06
-3.46203e-06
-8.01274e-08
-3.50016e-06
-2.79531e-07
-7.47413e-06
-2.92764e-07
-9.06368e-06
-1.10813e-07
-7.89551e-06
-3.57285e-06
-4.22281e-07
-3.07788e-06
-9.4334e-07
-6.95307e-06
-9.06213e-07
-9.10081e-06
-3.86334e-07
-8.41539e-06
-3.95918e-06
-1.68774e-06
-1.39015e-06
-2.52653e-06
-6.11427e-06
-2.18334e-06
-9.444e-06
-9.80885e-07
-9.61785e-06
-4.94007e-06
-1.70428e-06
6.40594e-06
-3.61779e-06
1.1184e-05
-4.63461e-06
1.03657e-05
-4.9864e-06
6.71379e-06
2.4731e-06
-5.63617e-06
-2.67406e-06
9.08e-06
-4.9571e-06
1.34671e-05
-5.8894e-06
1.1298e-05
-6.33099e-06
7.15538e-06
3.19907e-06
-7.05696e-06
-3.16827e-06
1.22483e-05
-4.07309e-06
1.43719e-05
-3.14908e-06
1.03739e-05
-2.12058e-06
6.12687e-06
2.84608e-06
-1.76759e-06
-1.21126e-06
1.34595e-05
2.55467e-06
1.0606e-05
7.00357e-06
5.92505e-06
1.00976e-05
3.03283e-06
1.30611e-06
1.16376e-05
1.34595e-05
2.40655e-05
2.99905e-05
3.30234e-05
3.43295e-05
-5.81731e-06
1.81132e-07
-5.6728e-06
-1.44502e-07
-5.54978e-06
-1.23022e-07
-5.47879e-06
-7.09938e-08
-5.45725e-06
-2.15396e-08
-5.48789e-06
3.06442e-08
-5.58619e-06
9.83019e-08
-5.77969e-06
1.93492e-07
-6.07654e-06
2.96852e-07
1.05843e-07
-6.18238e-06
-7.74123e-06
8.65402e-07
-7.94874e-06
6.30008e-08
-7.96367e-06
-1.08094e-07
-7.93913e-06
-9.55274e-08
-7.92874e-06
-3.19306e-08
-7.94862e-06
5.05239e-08
-7.99688e-06
1.46559e-07
-8.03685e-06
2.33467e-07
-7.92855e-06
1.88546e-07
-4.52637e-07
-7.37007e-06
-1.84037e-06
9.38189e-07
-1.93684e-06
1.59468e-07
-1.98251e-06
-6.24198e-08
-1.99887e-06
-7.91704e-08
-2.00072e-06
-3.00771e-08
-1.99095e-06
4.07518e-08
-1.96263e-06
1.18239e-07
-1.89664e-06
1.67479e-07
-1.76743e-06
5.93375e-08
-5.73456e-07
-1.64661e-06
1.21735e-05
4.02238e-07
1.22846e-05
4.83479e-08
1.22682e-05
-4.59531e-08
1.22348e-05
-4.57614e-08
1.22232e-05
-1.85293e-08
1.22474e-05
1.65456e-08
1.2311e-05
5.46437e-08
1.23965e-05
8.19634e-08
1.24151e-05
4.07735e-08
-2.35543e-07
1.20772e-05
3.47317e-05
3.47801e-05
3.47341e-05
3.46883e-05
3.46698e-05
3.46864e-05
3.4741e-05
3.4823e-05
3.48637e-05
3.46282e-05
-5.56456e-06
-2.00797e-06
-5.22654e-06
-6.45229e-06
-4.11297e-06
-1.05576e-05
-1.95076e-06
-1.17801e-05
-6.89083e-06
-6.68845e-06
-2.68958e-06
-6.29111e-06
-6.84963e-06
-5.36272e-06
-1.1486e-05
-2.93516e-06
-1.42076e-05
-9.82599e-06
-1.94925e-06
-2.38695e-06
-3.0117e-06
-5.78718e-06
-4.05978e-06
-1.04379e-05
-3.25907e-06
-1.50083e-05
-1.30851e-05
1.07565e-05
-1.0663e-06
7.78232e-06
-2.81295e-06
3.25185e-06
-5.90741e-06
-8.27386e-07
-1.09291e-05
-1.39124e-05
3.35619e-05
3.07489e-05
2.48415e-05
1.39124e-05
)
;

boundaryField
{
    movingWall
    {
        type            calculated;
        value           uniform 0;
    }
    fixedWalls
    {
        type            calculated;
        value           uniform 0;
    }
    frontAndBack
    {
        type            empty;
        value           nonuniform 0();
    }
}


// ************************************************************************* //
