/*--------------------------------*- C++ -*----------------------------------*\
| =========                 |                                                 |
| \\      /  F ield         | OpenFOAM: The Open Source CFD Toolbox           |
|  \\    /   O peration     | Version:  v1712                                 |
|   \\  /    A nd           | Web:      www.OpenFOAM.com                      |
|    \\/     M anipulation  |                                                 |
\*---------------------------------------------------------------------------*/
FoamFile
{
    version     2.0;
    format      ascii;
    class       volVectorField;
    location    "0.1";
    object      U;
}
// * * * * * * * * * * * * * * * * * * * * * * * * * * * * * * * * * * * * * //

dimensions      [0 1 -1 0 0 0 0];


internalField   nonuniform List<vector> 
300
(
(-0.0007664 0.000756964 0)
(-0.00761853 0.00448655 0)
(-0.0224323 0.00660001 0)
(-0.0399338 0.00678642 0)
(-0.0553967 0.00528016 0)
(-0.00456807 0.00767917 0)
(-0.0228914 0.0227127 0)
(-0.0547393 0.030674 0)
(-0.0907344 0.0309708 0)
(-0.122243 0.0241801 0)
(-0.00675715 0.0227611 0)
(-0.0311789 0.0546808 0)
(-0.0712593 0.070502 0)
(-0.115694 0.0703121 0)
(-0.153664 0.0543469 0)
(-0.00692509 0.0406711 0)
(-0.0315403 0.0910631 0)
(-0.0714107 0.114978 0)
(-0.115575 0.114121 0)
(-0.151898 0.0870722 0)
(-0.00530318 0.056491 0)
(-0.0244847 0.123077 0)
(-0.055205 0.153334 0)
(-0.0885218 0.15059 0)
(-0.113839 0.112339 0)
(-0.0653901 0.00277487 0)
(-0.0697833 0.000965774 0)
(-0.0710227 0.000147446 0)
(-0.0711294 -6.49055e-05 0)
(-0.0710721 -2.15979e-06 0)
(-0.0712074 0.000143681 0)
(-0.0715548 0.000229929 0)
(-0.0717723 5.00255e-05 0)
(-0.0708411 -0.000770403 0)
(-0.0666062 -0.00265852 0)
(-0.142276 0.0131415 0)
(-0.151124 0.0052387 0)
(-0.15411 0.00147869 0)
(-0.154919 0.000225774 0)
(-0.15512 0.000120301 0)
(-0.155282 0.000350471 0)
(-0.155415 0.000286362 0)
(-0.154958 -0.000938567 0)
(-0.152263 -0.00479666 0)
(-0.143449 -0.0130172 0)
(-0.174197 0.0279003 0)
(-0.180466 0.010833 0)
(-0.181774 0.00327511 0)
(-0.182059 0.000719225 0)
(-0.182125 0.000270379 0)
(-0.182143 0.000404589 0)
(-0.182121 -1.16215e-05 0)
(-0.181904 -0.00259456 0)
(-0.180669 -0.0103979 0)
(-0.174285 -0.0280483 0)
(-0.161013 0.0369918 0)
(-0.157088 0.0120287 0)
(-0.154022 0.00312467 0)
(-0.153184 0.000560501 0)
(-0.15301 0.000181763 0)
(-0.152857 0.000349121 0)
(-0.152717 1.04349e-05 0)
(-0.153267 -0.00257667 0)
(-0.156198 -0.0117689 0)
(-0.160089 -0.0374947 0)
(-0.0901059 0.0297015 0)
(-0.0744622 0.00724026 0)
(-0.0693221 0.00149065 0)
(-0.0687192 0.000184757 0)
(-0.068802 3.975e-05 0)
(-0.0686359 0.000142047 0)
(-0.0681858 2.5772e-05 0)
(-0.0683704 -0.00127721 0)
(-0.0732699 -0.00721797 0)
(-0.0893228 -0.0305005 0)
(-0.0564961 -0.0053065 0)
(-0.040673 -0.00692567 0)
(-0.0227625 -0.0067572 0)
(-0.00768023 -0.00456826 0)
(-0.000757386 -0.000766617 0)
(-0.123091 -0.0244997 0)
(-0.0910699 -0.0315447 0)
(-0.0546848 -0.0311805 0)
(-0.0227153 -0.0228928 0)
(-0.00448755 -0.00761996 0)
(-0.153337 -0.0552281 0)
(-0.114981 -0.0714189 0)
(-0.0705035 -0.0712626 0)
(-0.0306758 -0.0547421 0)
(-0.00660117 -0.0224359 0)
(-0.15058 -0.0885355 0)
(-0.114113 -0.115582 0)
(-0.070303 -0.115696 0)
(-0.030967 -0.0907353 0)
(-0.00678662 -0.0399387 0)
(-0.112326 -0.113842 0)
(-0.0870467 -0.151909 0)
(-0.0543112 -0.153664 0)
(-0.024159 -0.122233 0)
(-0.00527629 -0.0553983 0)
(-0.00264657 0.0665883 0)
(-0.0129722 0.143416 0)
(-0.0279822 0.174282 0)
(-0.0374506 0.16012 0)
(-0.0304893 0.089343 0)
(-0.00073744 0.0707843 0)
(-0.00468436 0.152178 0)
(-0.0102366 0.180666 0)
(-0.0116517 0.156281 0)
(-0.00718241 0.0733313 0)
(0.000126077 0.071621 0)
(-0.000697771 0.154761 0)
(-0.00225628 0.181894 0)
(-0.00231749 0.153462 0)
(-0.001191 0.0685361 0)
(0.000378572 0.0712013 0)
(0.000729425 0.155005 0)
(0.000599961 0.182091 0)
(0.000506386 0.153116 0)
(0.000205304 0.0685851 0)
(0.000392117 0.0704818 0)
(0.001017 0.154533 0)
(0.00129018 0.18206 0)
(0.00114319 0.15356 0)
(0.000467561 0.0694792 0)
(0.000306769 0.0698016 0)
(0.000745256 0.153998 0)
(0.000984522 0.181931 0)
(0.00103766 0.154012 0)
(0.000481682 0.0703765 0)
(3.20593e-05 0.0694017 0)
(-0.000322495 0.153869 0)
(-0.000519684 0.181722 0)
(0.000210015 0.154072 0)
(0.000322199 0.0712936 0)
(-0.000833438 0.0699237 0)
(-0.00341648 0.154998 0)
(-0.00490515 0.181336 0)
(-0.00262961 0.152729 0)
(-0.000620847 0.0717805 0)
(-0.00317197 0.0731966 0)
(-0.0112096 0.159418 0)
(-0.0161511 0.180549 0)
(-0.0115436 0.14647 0)
(-0.00525137 0.0672066 0)
(-0.0084832 0.0835657 0)
(-0.0280205 0.172145 0)
(-0.04172 0.181726 0)
(-0.0382623 0.132336 0)
(-0.0266506 0.0474759 0)
(-0.0296822 -0.0901234 0)
(-0.0369216 -0.161053 0)
(-0.0277987 -0.174195 0)
(-0.0130754 -0.142236 0)
(-0.00275874 -0.0653739 0)
(-0.0071882 -0.0745412 0)
(-0.0118513 -0.157206 0)
(-0.0105871 -0.180461 0)
(-0.00507182 -0.151004 0)
(-0.000919695 -0.069711 0)
(-0.00136605 -0.0695559 0)
(-0.00273609 -0.15431 0)
(-0.00276056 -0.18176 0)
(-0.00111946 -0.153819 0)
(-3.97989e-05 -0.0708104 0)
(7.41631e-05 -0.069293 0)
(0.000179219 -0.153789 0)
(0.00021 -0.182019 0)
(0.000439541 -0.1543 0)
(0.000279465 -0.0706158 0)
(0.000423738 -0.0700172 0)
(0.000999424 -0.154099 0)
(0.0010941 -0.182016 0)
(0.00089864 -0.153975 0)
(0.000368233 -0.0700073 0)
(0.000497476 -0.0708973 0)
(0.000983859 -0.154479 0)
(0.000843425 -0.181898 0)
(0.000703696 -0.153517 0)
(0.00033383 -0.0693294 0)
(0.000286118 -0.0718398 0)
(-9.06792e-05 -0.154423 0)
(-0.00104535 -0.18171 0)
(-0.000572365 -0.153532 0)
(3.80896e-05 -0.0689208 0)
(-0.00101385 -0.0720241 0)
(-0.0039321 -0.152562 0)
(-0.00669057 -0.181356 0)
(-0.00444498 -0.155159 0)
(-0.0010034 -0.0696575 0)
(-0.00675692 -0.0657668 0)
(-0.0152683 -0.144715 0)
(-0.0205995 -0.180648 0)
(-0.0139393 -0.160935 0)
(-0.0037945 -0.0738184 0)
(-0.0310774 -0.0420261 0)
(-0.0464025 -0.128137 0)
(-0.0502644 -0.182547 0)
(-0.0334721 -0.176652 0)
(-0.00993825 -0.0864318 0)
(-0.0178749 0.108418 0)
(-0.0557381 0.201689 0)
(-0.0852352 0.195331 0)
(-0.0987315 0.128941 0)
(-0.112761 0.0432414 0)
(-0.0290792 0.154719 0)
(-0.0818381 0.248429 0)
(-0.11204 0.220203 0)
(-0.122705 0.141389 0)
(-0.134333 0.0576262 0)
(-0.034333 0.223599 0)
(-0.0828175 0.291078 0)
(-0.0760692 0.227292 0)
(-0.0508071 0.140067 0)
(-0.0360456 0.0648083 0)
(0.00505026 0.277439 0)
(0.00299789 0.276536 0)
(0.0938819 0.17864 0)
(0.177118 0.0989177 0)
(0.223268 0.0450293 0)
(0.299682 0.146242 0)
(0.391977 0.124355 0)
(0.53998 0.0695562 0)
(0.636056 0.0343109 0)
(0.678558 0.0144186 0)
(-0.10855 0.00500079 0)
(-0.114844 -0.00152182 0)
(-0.112689 -0.00153953 0)
(-0.110237 -0.000870994 0)
(-0.109197 -0.000259734 0)
(-0.109256 0.000361402 0)
(-0.1106 0.00118503 0)
(-0.113996 0.00236757 0)
(-0.118324 0.00335754 0)
(-0.115806 -0.00114637 0)
(-0.147468 0.0110709 0)
(-0.157841 -0.00126504 0)
(-0.15971 -0.0027479 0)
(-0.159074 -0.00190049 0)
(-0.158568 -0.000586609 0)
(-0.158634 0.000946237 0)
(-0.159423 0.00282594 0)
(-0.160827 0.00496158 0)
(-0.160526 0.00566322 0)
(-0.152508 -0.00377192 0)
(-0.0345493 0.0200865 0)
(-0.0377463 0.00296016 0)
(-0.0393925 -0.00160636 0)
(-0.0398973 -0.00181398 0)
(-0.0400355 -0.00064166 0)
(-0.0399621 0.00100818 0)
(-0.0396419 0.00284286 0)
(-0.038865 0.0041382 0)
(-0.0368242 0.00208251 0)
(-0.0329708 -0.0119693 0)
(0.24138 0.0150301 0)
(0.245751 0.00265386 0)
(0.245792 -0.000988298 0)
(0.245006 -0.00130177 0)
(0.244464 -0.000532724 0)
(0.244558 0.000579796 0)
(0.245447 0.00178035 0)
(0.247087 0.00250918 0)
(0.248791 0.000771876 0)
(0.24749 -0.00891349 0)
(0.693133 0.00444609 0)
(0.696066 0.00054179 0)
(0.695387 -0.000501662 0)
(0.694216 -0.000514337 0)
(0.693493 -0.000228394 0)
(0.69345 0.000140246 0)
(0.694181 0.000545482 0)
(0.695682 0.000864498 0)
(0.697388 0.000546622 0)
(0.696707 -0.00205349 0)
(-0.124629 -0.0338544 0)
(-0.111142 -0.123911 0)
(-0.0967646 -0.1984 0)
(-0.0637085 -0.211182 0)
(-0.0203339 -0.115454 0)
(-0.141256 -0.0480794 0)
(-0.130264 -0.13662 0)
(-0.120246 -0.225293 0)
(-0.0892892 -0.263217 0)
(-0.0318428 -0.167678 0)
(-0.0332108 -0.0550685 0)
(-0.0470687 -0.134163 0)
(-0.0737817 -0.231349 0)
(-0.0837529 -0.307403 0)
(-0.034628 -0.241553 0)
(0.233898 -0.0367243 0)
(0.192247 -0.0917369 0)
(0.110134 -0.17787 0)
(0.01549 -0.285433 0)
(0.0132516 -0.290185 0)
(0.686123 -0.0103184 0)
(0.649264 -0.0288981 0)
(0.557632 -0.0644618 0)
(0.406788 -0.122621 0)
(0.307723 -0.148201 0)
)
;

boundaryField
{
    movingWall
    {
        type            fixedValue;
        value           uniform (1 0 0);
    }
    fixedWalls
    {
        type            noSlip;
    }
    frontAndBack
    {
        type            empty;
    }
}


// ************************************************************************* //
