# vtk DataFile Version 2.0
track0
ASCII
DATASET POLYDATA
POINTS 10930 float
-0.0205 0.001 1e-05
-0.0202034 0.00100022 1e-05
-0.0199069 0.00100067 1e-05
-0.0196103 0.00100132 1e-05
-0.0193137 0.00100216 1e-05
-0.0190172 0.0010032 1e-05
-0.0187132 0.00100461 1e-05
-0.0184093 0.00100572 1e-05
-0.0181054 0.0010068 1e-05
-0.0178015 0.00100784 1e-05
-0.0174976 0.00100885 1e-05
-0.0172058 0.00101 1e-05
-0.016914 0.00101081 1e-05
-0.0166222 0.00101159 1e-05
-0.0163305 0.00101234 1e-05
-0.0160387 0.00101307 1e-05
-0.0157586 0.00101393 1e-05
-0.0154784 0.00101461 1e-05
-0.0151983 0.00101533 1e-05
-0.0149182 0.00101609 1e-05
-0.0146381 0.00101689 1e-05
-0.0143692 0.00101781 1e-05
-0.0141002 0.00101866 1e-05
-0.0138313 0.00101956 1e-05
-0.0135624 0.00102052 1e-05
-0.0132934 0.00102152 1e-05
-0.0130366 0.00102258 1e-05
-0.0127798 0.00102363 1e-05
-0.012523 0.00102472 1e-05
-0.0122662 0.00102584 1e-05
-0.0120515 0.00102682 1e-05
-0.0120417 0.00102686 1e-05
-0.0120319 0.00102691 1e-05
-0.0120221 0.00102695 1e-05
-0.0120123 0.001027 1e-05
-0.0120025 0.00102705 1e-05
-0.0117547 0.00102821 1e-05
-0.0115068 0.00102939 1e-05
-0.0112589 0.0010306 1e-05
-0.0110111 0.00103183 1e-05
-0.0107632 0.00103308 1e-05
-0.0105252 0.0010343 1e-05
-0.0102873 0.00103554 1e-05
-0.0100493 0.0010368 1e-05
-0.00981133 0.00103807 1e-05
-0.00957337 0.00103935 1e-05
-0.00934491 0.00104058 1e-05
-0.00911645 0.00104183 1e-05
-0.00888799 0.00104309 1e-05
-0.00865954 0.00104436 1e-05
-0.00843108 0.00104563 1e-05
-0.00821175 0.00104684 1e-05
-0.00799242 0.00104807 1e-05
-0.00777309 0.0010493 1e-05
-0.00755376 0.00105054 1e-05
-0.00733443 0.00105177 1e-05
-0.00712387 0.00105294 1e-05
-0.0069133 0.00105413 1e-05
-0.00670273 0.00105531 1e-05
-0.00649217 0.0010565 1e-05
-0.0062816 0.00105769 1e-05
-0.00607944 0.0010588 1e-05
-0.00587729 0.00105993 1e-05
-0.00567514 0.00106106 1e-05
-0.00547298 0.00106218 1e-05
-0.00527083 0.00106331 1e-05
-0.00507675 0.00106436 1e-05
-0.00488267 0.00106543 1e-05
-0.0046886 0.00106649 1e-05
-0.00449452 0.00106755 1e-05
-0.00430044 0.0010686 1e-05
-0.00411412 0.00106959 1e-05
-0.0039278 0.00107058 1e-05
-0.00374147 0.00107157 1e-05
-0.00355515 0.00107256 1e-05
-0.00336883 0.00107353 1e-05
-0.00318995 0.00107445 1e-05
-0.00301107 0.00107537 1e-05
-0.00283219 0.00107629 1e-05
-0.00265331 0.00107719 1e-05
-0.00247443 0.00107809 1e-05
-0.0023027 0.00107893 1e-05
-0.00213097 0.00107977 1e-05
-0.00195924 0.0010806 1e-05
-0.0017875 0.00108142 1e-05
-0.00161577 0.00108223 1e-05
-0.0014509 0.00108298 1e-05
-0.00128603 0.00108373 1e-05
-0.00112116 0.00108446 1e-05
-0.000956289 0.00108518 1e-05
-0.000791418 0.00108588 1e-05
-0.000633135 0.00108653 1e-05
-0.000474851 0.00108716 1e-05
-0.000316567 0.00108777 1e-05
-0.000158283 0.00108836 1e-05
0 0.00108892 1e-05
0.000105677 0.00108927 1e-05
0.000211355 0.00108962 1e-05
0.000317032 0.00108995 1e-05
0.00042271 0.00109026 1e-05
0.000528387 0.00109056 1e-05
0.000634886 0.00109085 1e-05
0.000741385 0.00109113 1e-05
0.000847885 0.0010914 1e-05
0.000954384 0.00109165 1e-05
0.00106088 0.0010919 1e-05
0.00116821 0.00109212 1e-05
0.00127554 0.00109235 1e-05
0.00138286 0.00109256 1e-05
0.00149019 0.00109276 1e-05
0.00159752 0.00109295 1e-05
0.00170568 0.00109312 1e-05
0.00181384 0.00109328 1e-05
0.001922 0.00109344 1e-05
0.00203016 0.00109358 1e-05
0.00213833 0.00109371 1e-05
0.00224733 0.00109382 1e-05
0.00235633 0.00109394 1e-05
0.00246533 0.00109404 1e-05
0.00257434 0.00109413 1e-05
0.00268334 0.00109422 1e-05
0.00279319 0.00109428 1e-05
0.00290304 0.00109435 1e-05
0.00301289 0.00109441 1e-05
0.00312274 0.00109446 1e-05
0.00323259 0.00109451 1e-05
0.00334329 0.00109454 1e-05
0.003454 0.00109457 1e-05
0.0035647 0.0010946 1e-05
0.0036754 0.00109462 1e-05
0.00378611 0.00109463 1e-05
0.00389767 0.00109463 1e-05
0.00400924 0.00109464 1e-05
0.0041208 0.00109463 1e-05
0.00423237 0.00109463 1e-05
0.00434393 0.00109461 1e-05
0.00445636 0.00109459 1e-05
0.00456879 0.00109456 1e-05
0.00468123 0.00109453 1e-05
0.00479366 0.00109449 1e-05
0.00490609 0.00109445 1e-05
0.0050194 0.0010944 1e-05
0.0051327 0.00109435 1e-05
0.00524601 0.00109429 1e-05
0.00535932 0.00109423 1e-05
0.00547262 0.00109416 1e-05
0.0055495 0.00109411 1e-05
0.00562638 0.00109406 1e-05
0.00570326 0.00109401 1e-05
0.00578014 0.00109395 1e-05
0.00585543 0.00109389 1e-05
0.00589306 0.00109387 1e-05
0.00593068 0.00109383 1e-05
0.00596831 0.0010938 1e-05
0.00600593 0.00109377 1e-05
0.00604356 0.00109374 1e-05
0.00615863 0.00109364 1e-05
0.00627371 0.00109354 1e-05
0.00638878 0.00109343 1e-05
0.00650386 0.00109332 1e-05
0.00661893 0.0010932 1e-05
0.0067349 0.00109307 1e-05
0.00685087 0.00109295 1e-05
0.00696684 0.00109281 1e-05
0.00708281 0.00109268 1e-05
0.00719878 0.00109253 1e-05
0.00731565 0.00109238 1e-05
0.00743252 0.00109223 1e-05
0.00754939 0.00109207 1e-05
0.00766626 0.00109191 1e-05
0.00778313 0.00109174 1e-05
0.00790091 0.00109155 1e-05
0.00801869 0.00109137 1e-05
0.00813647 0.00109119 1e-05
0.00825425 0.001091 1e-05
0.00837203 0.00109081 1e-05
0.00849073 0.00109059 1e-05
0.00860942 0.00109039 1e-05
0.00872812 0.00109018 1e-05
0.00884682 0.00108996 1e-05
0.00896551 0.00108974 1e-05
0.00908513 0.00108949 1e-05
0.00920475 0.00108926 1e-05
0.00932437 0.00108902 1e-05
0.00944398 0.00108878 1e-05
0.0095636 0.00108853 1e-05
0.00968415 0.00108824 1e-05
0.0098047 0.00108798 1e-05
0.00992525 0.00108772 1e-05
0.0100458 0.00108744 1e-05
0.0101663 0.00108717 1e-05
0.0102878 0.00108684 1e-05
0.0104093 0.00108655 1e-05
0.0105308 0.00108625 1e-05
0.0106523 0.00108595 1e-05
0.0107738 0.00108564 1e-05
0.0108962 0.00108528 1e-05
0.0110186 0.00108496 1e-05
0.0111411 0.00108462 1e-05
0.0112635 0.00108429 1e-05
0.0113859 0.00108394 1e-05
0.0115093 0.00108355 1e-05
0.0116327 0.00108319 1e-05
0.0117561 0.00108282 1e-05
0.0118795 0.00108245 1e-05
0.0120028 0.00108207 1e-05
0.0121272 0.00108163 1e-05
0.0122515 0.00108123 1e-05
0.0123759 0.00108083 1e-05
0.0125002 0.00108041 1e-05
0.0126245 0.00107999 1e-05
0.0127498 0.00107951 1e-05
0.0128752 0.00107907 1e-05
0.0130005 0.00107862 1e-05
0.0131258 0.00107817 1e-05
0.0132511 0.0010777 1e-05
0.0133774 0.00107718 1e-05
0.0135036 0.00107669 1e-05
0.0136299 0.0010762 1e-05
0.0137562 0.0010757 1e-05
0.0138825 0.00107518 1e-05
0.0140098 0.00107461 1e-05
0.014137 0.00107407 1e-05
0.0142643 0.00107353 1e-05
0.0143915 0.00107298 1e-05
0.0145188 0.00107241 1e-05
0.0146471 0.0010718 1e-05
0.0147753 0.0010712 1e-05
0.0149036 0.00107061 1e-05
0.0150318 0.00107001 1e-05
0.0151601 0.00106939 1e-05
0.0152893 0.00106872 1e-05
0.0154186 0.00106807 1e-05
0.0155478 0.00106742 1e-05
0.0156771 0.00106677 1e-05
0.0158063 0.00106609 1e-05
0.0159366 0.00106537 1e-05
0.0160668 0.00106466 1e-05
0.0161971 0.00106395 1e-05
0.0163274 0.00106323 1e-05
0.0164576 0.00106249 1e-05
0.0165889 0.00106171 1e-05
0.0167201 0.00106094 1e-05
0.0168514 0.00106017 1e-05
0.0169827 0.00105939 1e-05
0.0171139 0.00105858 1e-05
0.0172462 0.00105774 1e-05
0.0173785 0.0010569 1e-05
0.0175108 0.00105606 1e-05
0.0176431 0.00105521 1e-05
0.0177754 0.00105434 1e-05
0.0179087 0.00105343 1e-05
0.018042 0.00105252 1e-05
0.0181753 0.0010516 1e-05
0.0183087 0.00105068 1e-05
0.018442 0.00104973 1e-05
0.0185763 0.00104875 1e-05
0.0187107 0.00104777 1e-05
0.018845 0.00104677 1e-05
0.0189794 0.00104576 1e-05
0.0191137 0.00104474 1e-05
0.0192491 0.00104369 1e-05
0.0193845 0.00104263 1e-05
0.0195199 0.00104155 1e-05
0.0196553 0.00104046 1e-05
0.0197907 0.00103935 1e-05
0.0199272 0.00103823 1e-05
0.0200636 0.00103708 1e-05
0.0202001 0.00103591 1e-05
0.0203365 0.00103473 1e-05
0.020473 0.00103354 1e-05
0.0206105 0.00103233 1e-05
0.020748 0.0010311 1e-05
0.0208855 0.00102984 1e-05
0.021023 0.00102856 1e-05
0.0211606 0.00102728 1e-05
0.0212991 0.00102599 1e-05
0.0214377 0.00102466 1e-05
0.0215763 0.00102331 1e-05
0.0217149 0.00102194 1e-05
0.0218535 0.00102056 1e-05
0.0219931 0.00101918 1e-05
0.0221328 0.00101776 1e-05
0.0222724 0.0010163 1e-05
0.0224121 0.00101483 1e-05
0.0225517 0.00101336 1e-05
0.0226925 0.00101188 1e-05
0.0228332 0.00101036 1e-05
0.022974 0.0010088 1e-05
0.0231147 0.00100723 1e-05
0.0232555 0.00100566 1e-05
0.0233973 0.00100407 1e-05
0.0235391 0.00100244 1e-05
0.023681 0.00100078 1e-05
0.0238228 0.000999104 1e-05
0.0239647 0.000997423 1e-05
0.0241076 0.000995732 1e-05
0.0242505 0.000993996 1e-05
0.0243935 0.000992227 1e-05
0.0245364 0.000990441 1e-05
0.0246794 0.000988648 1e-05
0.0248234 0.000986845 1e-05
0.0249675 0.000984995 1e-05
0.0251115 0.000983115 1e-05
0.0252556 0.000981216 1e-05
0.0253996 0.000979307 1e-05
0.0255448 0.000977385 1e-05
0.02569 0.000975415 1e-05
0.0258351 0.000973417 1e-05
0.0259803 0.0009714 1e-05
0.0261255 0.000969367 1e-05
0.0262718 0.000967323 1e-05
0.0264181 0.000965228 1e-05
0.0265644 0.000963109 1e-05
0.0267107 0.00096097 1e-05
0.026857 0.00095881 1e-05
0.0270044 0.000956637 1e-05
0.0271519 0.000954414 1e-05
0.0272993 0.000952169 1e-05
0.0274467 0.000949903 1e-05
0.0275942 0.000947615 1e-05
0.0277428 0.000945307 1e-05
0.0278914 0.000942953 1e-05
0.0280399 0.000940576 1e-05
0.0281885 0.000938176 1e-05
0.0283371 0.000935754 1e-05
0.0284869 0.000933305 1e-05
0.0286366 0.000930815 1e-05
0.0287863 0.000928302 1e-05
0.0289361 0.000925765 1e-05
0.0290858 0.000923205 1e-05
0.0292367 0.000920611 1e-05
0.0293876 0.00091798 1e-05
0.0295385 0.000915325 1e-05
0.0296894 0.000912645 1e-05
0.0298403 0.00090994 1e-05
0.0299799 0.00090742 1e-05
0.0301194 0.000904873 1e-05
0.0302589 0.000902304 1e-05
0.0303984 0.000899713 1e-05
0.0305288 0.000897269 1e-05
0.0305432 0.000896998 1e-05
0.0305576 0.000896726 1e-05
0.030572 0.000896454 1e-05
0.0305863 0.000896182 1e-05
0.0306007 0.000895909 1e-05
0.030754 0.000893003 1e-05
0.0309072 0.000890069 1e-05
0.0310605 0.000887108 1e-05
0.0312138 0.000884118 1e-05
0.031367 0.000881102 1e-05
0.0315215 0.00087804 1e-05
0.0316759 0.000874944 1e-05
0.0318304 0.000871819 1e-05
0.0319848 0.000868665 1e-05
0.0321393 0.000865482 1e-05
0.0322949 0.000862257 1e-05
0.0324506 0.000858991 1e-05
0.0326062 0.000855694 1e-05
[...]
POINT_DATA 10930
 FIELD attributes 1
U 3 10930 float
10.0004 	0.0075752 	0 10.0023 	0.0151261 	0 10.0042 	0.0217839 	0 10.0061 	0.0283966 	0 10.008 	0.0349644 	0 10.0143 	0.0464145 	0 10.016 	0.0367855 	0 10.0208 	0.0355853 	0 10.0255 	0.0343881 	0 10.0302 	0.0331939 	0 10.0387 	0.039594 	0 10.0407 	0.0278451 	0 10.0459 	0.0268844 	0 10.0511 	0.0259208 	0 10.0563 	0.0249545 	0 10.0639 	0.0309937 	0 10.0663 	0.0245674 	0 10.0709 	0.0259129 	0 10.0754 	0.0272642 	0 10.0799 	0.0286213 	0 10.0856 	0.034499 	0 10.0886 	0.0319591 	0 10.0925 	0.0338948 	0 10.0964 	0.0358383 	0 10.1003 	0.0377897 	0 10.1044 	0.0416649 	0 10.1076 	0.041336 	0 10.1109 	0.042826 	0 10.1142 	0.044321 	0 10.1175 	0.0458211 	0 10.1203 	0.0470795 	0 10.1204 	0.047137 	0 10.1205 	0.0471945 	0 10.1207 	0.047252 	0 10.1208 	0.0473095 	0 10.1209 	0.0473468 	0 10.1235 	0.0483524 	0 10.1261 	0.0493457 	0 10.1286 	0.0503416 	0 10.1312 	0.0513402 	0 10.134 	0.0518571 	0 10.1356 	0.0528363 	0 10.1374 	0.0534698 	0 10.1392 	0.0541047 	0 10.141 	0.0547408 	0 10.1433 	0.0545651 	0 10.1442 	0.0555096 	0 10.1454 	0.0558759 	0 10.1467 	0.0562428 	0 10.1479 	0.0566102 	0 10.1497 	0.0559717 	0 10.1502 	0.0568494 	0 10.1509 	0.057008 	0 10.1517 	0.0571667 	0 10.1524 	0.0573256 	0 10.1538 	0.0563934 	0 10.1542 	0.0571814 	0 10.1546 	0.0571813 	0 10.1549 	0.0571813 	0 10.1553 	0.0571812 	0 10.1561 	0.0560808 	0 10.1566 	0.0567662 	0 10.1567 	0.0566428 	0 10.1568 	0.0565194 	0 10.1568 	0.0563959 	0 10.1569 	0.0552068 	0 10.1579 	0.0557779 	0 10.1578 	0.0555507 	0 10.1576 	0.0553233 	0 10.1575 	0.0550958 	0 10.1567 	0.0538604 	0 10.1584 	0.0543046 	0 10.1581 	0.0539732 	0 10.1578 	0.0536418 	0 10.1575 	0.0533103 	0 10.1558 	0.0520314 	0 10.1585 	0.0523235 	0 10.158 	0.0518722 	0 10.1576 	0.0514207 	0 10.1572 	0.0509692 	0 10.1545 	0.0496302 	0 10.1582 	0.049731 	0 10.1578 	0.0491042 	0 10.1573 	0.0484773 	0 10.1569 	0.0478503 	0 10.153 	0.0463719 	0 10.158 	0.0461501 	0 10.1575 	0.0451716 	0 10.1569 	0.044193 	0 10.1564 	0.0432142 	0 10.1512 	0.0414126 	0 10.1573 	0.0406195 	1.60111e-21 10.1567 	0.0390892 	8.23441e-21 10.156 	0.0375586 	1.48697e-20 10.1553 	0.0360279 	2.15071e-20 10.1487 	0.0339701 	1.91601e-20 10.1552 	0.0332275 	1.16961e-19 10.1542 	0.0317993 	1.07726e-19 10.1531 	0.030371 	9.84692e-20 10.1521 	0.0289424 	8.91899e-20 10.1447 	0.0271385 	-1.90387e-20 10.1508 	0.0266689 	-5.03968e-20 10.1495 	0.0255027 	-5.62458e-20 10.1482 	0.0243362 	-6.20867e-20 10.1469 	0.0231695 	-6.79195e-20 10.1394 	0.02153 	-2.99767e-20 10.1451 	0.0212433 	-2.5868e-20 10.1437 	0.0200404 	-1.82371e-20 10.1422 	0.0188371 	-1.06073e-20 10.1408 	0.0176335 	-2.97887e-21 10.1335 	0.0158341 	7.83268e-21 10.1388 	0.0157744 	-9.85171e-21 10.1373 	0.0146019 	-3.39735e-20 10.1358 	0.0134289 	-5.80989e-20 10.1343 	0.0122554 	-8.22281e-20 10.1272 	0.0103005 	-1.14434e-19 10.1319 	0.0105393 	-1.49608e-19 10.1302 	0.00960453 	-1.33448e-19 10.1286 	0.00866931 	-1.17277e-19 10.1269 	0.00773362 	-1.01094e-19 10.1201 	0.00586415 	-4.04281e-20 10.124 	0.00629291 	2.6978e-20 10.1222 	0.00560874 	4.40196e-20 10.1203 	0.0049242 	6.10501e-20 10.1184 	0.00423928 	7.80697e-20 10.1121 	0.00261072 	4.78132e-20 10.1151 	0.00301002 	-2.95375e-20 10.1131 	0.00246261 	-3.67094e-20 10.1111 	0.00191489 	-4.38672e-20 10.109 	0.00136686 	-5.10109e-20 10.1033 	2.00013e-05 	-7.071e-22 10.1053 	0.000239509 	4.37362e-20 10.1031 	-0.000254035 	3.14499e-20 10.1008 	-0.000747841 	1.91509e-20 10.0986 	-0.00124191 	6.83933e-21 10.0935 	-0.00230219 	-4.08505e-20 10.0943 	-0.00229939 	-9.05924e-20 10.0918 	-0.00276439 	-1.18037e-19 10.0893 	-0.00322961 	-1.45477e-19 10.0868 	-0.00369505 	-1.72912e-19 10.0824 	-0.00448132 	-1.82081e-19 10.0819 	-0.00467087 	-1.82577e-19 10.0791 	-0.0051138 	-1.66846e-19 10.0763 	-0.00555691 	-1.51113e-19 10.0735 	-0.00600021 	-1.35376e-19 10.0699 	-0.00655434 	-1.13765e-19 10.0688 	-0.00675433 	-9.96774e-20 10.0667 	-0.00704072 	-8.42662e-20 10.0646 	-0.00732717 	-6.88556e-20 10.0625 	-0.0076137 	-5.34457e-20 10.0604 	-0.00789439 	-3.83535e-20 10.0594 	-0.0080356 	-3.05446e-20 10.0584 	-0.00817682 	-2.27356e-20 10.0573 	-0.00831806 	-1.49264e-20 10.0563 	-0.00845932 	-7.11699e-21 10.0522 	-0.00866728 	-1.44288e-22 10.0517 	-0.00900483 	0 10.0482 	-0.00941872 	0 10.0447 	-0.00983276 	0 10.0412 	-0.0102469 	0 10.0247 	-0.0110255 	-5.87212e-22 10.0334 	-0.0110428 	-1.95697e-20 10.0295 	-0.0114483 	-4.18802e-20 10.0256 	-0.0118538 	-6.41894e-20 10.0217 	-0.0122595 	-8.64971e-20 9.99426 	-0.0134332 	-1.08544e-19 10.0127 	-0.0130551 	-1.20001e-19 10.0084 	-0.0134577 	-1.22425e-19 10.0041 	-0.0138604 	-1.24851e-19 9.99976 	-0.0142632 	-1.27277e-19 9.9607 	-0.015895 	-1.2104e-19 9.98924 	-0.0150892 	-1.25345e-19 9.98448 	-0.0154897 	-9.03602e-20 9.97972 	-0.0158904 	-5.53826e-20 9.97496 	-0.0162912 	-2.04123e-20 9.92396 	-0.0183966 	5.26135e-20 9.96284 	-0.0171665 	5.29695e-20 9.95759 	-0.0175647 	5.44188e-20 9.95235 	-0.0179631 	5.58665e-20 9.9471 	-0.0183616 	5.73125e-20 9.88409 	-0.0209216 	6.5023e-20 9.93321 	-0.0192996 	5.02955e-20 9.92746 	-0.0196965 	3.55694e-20 9.92171 	-0.0200935 	2.08424e-20 9.91595 	-0.0204906 	6.11452e-21 9.84116 	-0.0234617 	-2.77028e-21 9.90019 	-0.0215018 	-5.46016e-21 9.89392 	-0.0218998 	-1.93597e-20 9.88764 	-0.0222981 	-3.32584e-20 9.88137 	-0.0226965 	-4.71562e-20 9.79532 	-0.026018 	-6.10895e-20 9.86363 	-0.0237864 	-5.34955e-20 9.85682 	-0.0241895 	-6.25382e-20 9.85002 	-0.0245928 	-7.15785e-20 9.84321 	-0.0249964 	-8.06164e-20 9.74669 	-0.0285965 	-1.12738e-19 9.82341 	-0.0261684 	-2.33483e-19 9.81607 	-0.0265803 	-2.22412e-19 9.80873 	-0.0269924 	-2.11351e-19 9.80138 	-0.0274048 	-2.003e-19 9.69547 	-0.0312026 	-5.28256e-20 9.77953 	-0.0286566 	-2.96898e-20 9.77165 	-0.0290818 	-1.98537e-20 9.76377 	-0.0295072 	-1.00169e-20 9.75588 	-0.0299329 	-1.79493e-22 9.64182 	-0.0338467 	0 9.72978 	-0.0313331 	0 9.72355 	-0.031711 	0 9.71513 	-0.0321561 	0 9.69792 	-0.0328757 	0 9.58597 	-0.0365502 	0 9.66877 	-0.0343674 	0 9.67188 	-0.0344888 	7.92644e-21 9.66295 	-0.0349586 	1.70492e-20 9.63534 	-0.0359753 	2.89984e-20 9.52811 	-0.0393243 	5.30068e-20 9.60523 	-0.0374958 	2.14798e-19 9.61675 	-0.0374297 	2.56805e-19 9.6073 	-0.0379268 	2.60578e-19 9.57039 	-0.039169 	2.15181e-19 9.46846 	-0.0421758 	5.33183e-20 9.5395 	-0.0407098 	2.9567e-20 9.55833 	-0.0405292 	1.59477e-20 9.54839 	-0.0410576 	7.90888e-21 9.50344 	-0.0424511 	9.99685e-21 9.40724 	-0.0451119 	2.69062e-20 9.47195 	-0.044009 	1.32557e-19 9.49692 	-0.0437891 	1.83075e-19 9.48651 	-0.0443561 	1.84544e-19 9.43486 	-0.04583 	1.24334e-19 9.34469 	-0.0481522 	6.55523e-21 9.40292 	-0.0474145 	-1.18705e-19 9.43278 	-0.0472303 	-1.978e-19 9.42192 	-0.0478414 	-2.10688e-19 9.36499 	-0.0493237 	-1.64186e-19 9.28106 	-0.0513176 	-8.29371e-20 9.33286 	-0.0509222 	-2.24423e-19 9.3664 	-0.0508316 	-3.2574e-19 9.35512 	-0.0514907 	-3.2854e-19 9.29429 	-0.0529202 	-2.14709e-19 9.21662 	-0.0546128 	-6.13659e-20 9.26212 	-0.05455 	-3.42961e-20 9.29818 	-0.054615 	-1.02138e-20 9.28651 	-0.0553277 	-1.20993e-21 9.2231 	-0.0566413 	0 9.1516 	-0.0580504 	0 9.19106 	-0.0583258 	0 9.22856 	-0.05862 	0 9.21653 	-0.0593888 	0 9.15174 	-0.0605125 	3.99014e-21 9.08621 	-0.061643 	8.03359e-21 9.11996 	-0.0622563 	4.19515e-21 9.15369 	-0.0628701 	3.56974e-22 9.14033 	-0.063678 	4.51142e-22 9.08052 	-0.0645337 	4.4998e-21 9.02066 	-0.0653912 	8.54932e-21 9.04909 	-0.0663314 	4.71121e-21 9.0775 	-0.0672726 	8.73595e-22 9.06418 	-0.0680959 	9.6308e-21 9.00968 	-0.0686899 	3.20086e-20 8.95514 	-0.0692852 	5.43875e-20 8.9787 	-0.0705322 	2.0585e-19 9.00221 	-0.0717807 	3.57313e-19 8.98907 	-0.0726148 	3.58024e-19 8.93945 	-0.0729716 	2.06594e-19 8.88981 	-0.0733294 	5.51633e-20 8.90895 	-0.0748676 	3.31329e-20 8.92804 	-0.0764076 	1.1104e-20 8.91517 	-0.0772469 	1.94492e-21 8.87001 	-0.077381 	5.80635e-21 8.82482 	-0.0775158 	9.66817e-21 8.84002 	-0.0793083 	6.02701e-21 8.85515 	-0.081103 	2.38695e-21 8.84265 	-0.0819445 	-4.85726e-21 8.80148 	-0.0818943 	-9.6077e-21 8.76031 	-0.0818446 	-1.43592e-20 8.772 	-0.0838754 	-6.6449e-20 8.78363 	-0.0859086 	-1.18545e-19 8.77159 	-0.0867524 	-1.22605e-19 8.73398 	-0.0865382 	-7.50346e-20 8.69637 	-0.0863242 	-2.74637e-20 8.70501 	-0.0885521 	9.14755e-20 8.71356 	-0.0907827 	2.10406e-19 8.70206 	-0.0916246 	2.24304e-19 8.66758 	-0.0912821 	1.25039e-19 8.6331 	-0.0909397 	2.57725e-20 8.63907 	-0.0933356 	1.2019e-20 8.64352 	-0.0956072 	-1.17931e-21 8.63168 	-0.0964332 	-7.99032e-21 8.60232 	-0.0961584 	-4.02856e-21 8.57059 	-0.0957339 	1.39739e-21 8.57425 	-0.0983005 	-5.3362e-21 8.57427 	-0.100469 	-1.37269e-20 8.56259 	-0.10133 	-2.74994e-20 8.53824 	-0.101205 	-7.39948e-20 8.50887 	-0.100687 	-1.33489e-19 8.51055 	-0.103331 	-2.8919e-19 8.50702 	-0.105287 	-3.73362e-19 8.49551 	-0.106177 	-3.46945e-19 8.47535 	-0.106289 	-2.37383e-19 8.44801 	-0.105755 	-5.86755e-20 8.44797 	-0.108468 	8.86677e-20 8.44163 	-0.110193 	1.52369e-19 8.43026 	-0.111125 	1.49004e-19 8.41362 	-0.111519 	1.07368e-19 8.38808 	-0.111002 	8.28641e-22 8.38657 	-0.11382 	-1.04588e-19 8.37805 	-0.115302 	-1.41368e-19 8.36679 	-0.116269 	-1.51664e-19 8.35308 	-0.116948 	-1.42592e-19 8.32905 	-0.116396 	-5.11413e-20 8.32632 	-0.119248 	-3.81241e-20 8.3161 	-0.120441 	-2.53756e-20 8.30495 	-0.121436 	-1.26618e-20 8.29371 	-0.122426 	9.25158e-23 8.27094 	-0.121894 	2.40583e-20 8.26668 	-0.124646 	-4.63973e-22 8.25564 	-0.125685 	-7.23568e-21 8.24456 	-0.126726 	-1.40089e-20 8.23343 	-0.127767 	-2.07836e-20 8.21372 	-0.127582 	-7.99381e-21 8.2075 	-0.130049 	-2.47252e-20 8.19648 	-0.131121 	-3.21824e-20 8.18542 	-0.132194 	-3.96444e-20 8.1743 	-0.133268 	-4.71111e-20 8.15723 	-0.133399 	-6.53772e-20 8.14942 	-0.135505 	6.38251e-21 8.13841 	-0.136596 	8.0758e-21 8.12736 	-0.137688 	9.73913e-21 8.11625 	-0.138781 	1.13724e-20 8.10148 	-0.139269 	-3.15839e-20 8.09234 	-0.141047 	9.51112e-21 8.08133 	-0.142187 	1.19836e-20 8.07026 	-0.143329 	1.44282e-20 8.05915 	-0.144471 	1.68449e-20 8.04637 	-0.145337 	1.49561e-21 8.03703 	-0.146727 	-6.95693e-22 8.02687 	-0.147812 	-5.40088e-22 8.01667 	-0.148898 	-3.84524e-22 8.00642 	-0.149985 	-2.29001e-22 7.9968 	-0.151002 	-8.36584e-23 7.99571 	-0.151114 	-6.61863e-23 7.99461 	-0.151227 	-4.87138e-23 7.99352 	-0.15134 	-3.12407e-23 7.99242 	-0.151453 	-1.37673e-23 7.99144 	-0.151537 	0 7.98001 	-0.15277 	0 7.96855 	-0.153978 	0 7.95703 	-0.155187 	0 7.94546 	-0.156397 	0 7.93511 	-0.157282 	0 7.92342 	-0.158837 	0 7.91188 	-0.160084 	0 7.90028 	-0.161333 	0 7.88862 	-0.162583 	0 7.87929 	-0.163222 	0 7.86732 	-0.165092 	0 7.85565 	-0.166376 	0 7.84393 	-0.167662 	0 7.83214 	-0.168949 	0 7.82371 	-0.169343 	0 7.81145 	-0.171513 	0 7.79964 	-0.172816 	0 7.78777 	-0.17412 	0 7.77585 	-0.175426 	0 7.76834 	-0.175567 	0 7.75589 	-0.178032 	0 7.74393 	-0.179388 	0 7.73191 	-0.180735 	0 7.72054 	-0.181895 	0 7.71304 	-0.182009 	0 7.70046 	-0.184484 	0 7.68815 	-0.18616 	-7.30721e-21 7.67592 	-0.187535 	-1.7383e-20 7.6654 	-0.188431 	-2.74738e-20 7.65753 	-0.188597 	-3.75914e-20 7.64473 	-0.191056 	-2.6409e-20 7.63207 	-0.193027 	-1.9752e-20 7.61962 	-0.194399 	-1.86451e-20 7.60995 	-0.195009 	-2.48389e-20 7.6018 	-0.195203 	-3.50121e-20 7.58889 	-0.197646 	-2.37271e-20 7.57596 	-0.199919 	-1.24285e-20 7.56329 	-0.201322 	-1.08751e-21 7.55435 	-0.201701 	0 7.54579 	-0.201971 	0 7.53264 	-0.204411 	0 7.51941 	-0.206852 	0 7.50709 	-0.208229 	-4.14369e-21 7.49816 	-0.208559 	-8.94498e-21 7.4892 	-0.208889 	-1.3746e-20 7.47571 	-0.211312 	-4.8707e-20 7.46213 	-0.213737 	-8.36643e-20 7.45049 	-0.215113 	-9.38938e-20 7.44128 	-0.215437 	-7.66382e-20 7.43206 	-0.215762 	-5.93779e-20 7.41835 	-0.218151 	-3.34049e-20 7.40455 	-0.220542 	-7.41663e-21 7.39357 	-0.221926 	-1.0606e-20 7.384 	-0.222262 	-3.4405e-20 7.37441 	-0.222599 	-5.82054e-20 7.36044 	-0.224965 	-7.12368e-20 7.34638 	-0.227332 	-8.42533e-20 7.33605 	-0.228672 	-8.31933e-20 7.32605 	-0.229104 	-5.31681e-20 7.31605 	-0.229469 	-2.10256e-20 7.30177 	-0.231804 	-1.74694e-20 7.28849 	-0.233848 	-1.23703e-20 7.27779 	-0.235185 	-3.53236e-21 7.26729 	-0.235953 	0 7.25693 	-0.236342 	0 7.24232 	-0.238635 	0 7.2298 	-0.240351 	0 7.21871 	-0.241669 	0 7.20768 	-0.242747 	0 7.19691 	-0.243137 	0 7.18188 	-0.245385 	0 7.1701 	-0.246757 	0 7.15865 	-0.248031 	0 7.14714 	-0.249305 	0 7.13604 	-0.249731 	-1.42156e-20 7.12147 	-0.251711 	1.93493e-23 7.10972 	-0.252932 	1.11506e-22 7.09792 	-0.254154 	2.03696e-22 7.08606 	-0.255376 	2.95919e-22 7.07442 	-0.256101 	2.086e-21 7.06066 	-0.257722 	1.44896e-20 7.04854 	-0.258905 	1.22804e-20 7.03637 	-0.260088 	1.00585e-20 7.02414 	-0.261272 	7.82388e-21 7.01194 	-0.262309 	3.68975e-21 7.00589 	-0.262944 	2.80131e-21 7.00036 	-0.263446 	6.27429e-21 6.99482 	-0.263947 	9.74782e-21 6.98927 	-0.264449 	1.32219e-20 6.98386 	-0.264937 	1.66052e-20 6.97667 	-0.265577 	2.03811e-20 6.96946 	-0.266216 	2.41561e-20 6.96224 	-0.266857 	2.793e-20 6.95499 	-0.267497 	3.1703e-20 6.94876 	-0.267971 	3.55393e-20 6.93525 	-0.269226 	3.29018e-20 6.92212 	-0.270294 	3.18272e-20 6.90893 	-0.271363 	3.07467e-20 6.8957 	-0.272434 	2.96602e-20 6.88529 	-0.273032 	2.87865e-20 6.87066 	-0.274536 	2.72276e-20 6.85722 	-0.275514 	2.54637e-20 6.84372 	-0.276494 	2.36943e-20 6.83017 	-0.277474 	2.19194e-20 6.82134 	-0.277669 	2.40434e-20 6.80563 	-0.279364 	1.99433e-20 6.7918 	-0.280279 	1.87533e-20 6.77801 	-0.281155 	1.77073e-20 6.76558 	-0.281803 	1.76985e-20 6.75705 	-0.281805 	2.06384e-20 6.7411 	-0.28338 	1.61661e-20 6.72615 	-0.284533 	1.01583e-20 6.71211 	-0.285303 	2.75877e-21 6.70139 	-0.285527 	-2.13458e-21 6.69263 	-0.285426 	-5.53836e-21 6.67641 	-0.28689 	-2.63994e-21 6.66031 	-0.288284 	0 6.64604 	-0.288946 	0 6.63711 	-0.288723 	0 6.62819 	-0.288497 	0 6.61178 	-0.289835 	0 6.59531 	-0.291173 	0 6.58214 	-0.291662 	-1.07674e-21 6.57307 	-0.291303 	-3.96716e-21 6.56399 	-0.290944 	-6.85792e-21 6.54741 	-0.292144 	-4.4118e-21 6.53077 	-0.293346 	-1.96712e-21 6.51857 	-0.293702 	-1.22168e-21 6.50942 	-0.293183 	7.706e-22 6.50027 	-0.292664 	2.76332e-21 6.48359 	-0.2937 	-2.09194e-20 6.46759 	-0.294612 	-4.11674e-20 6.45624 	-0.294733 	-3.96392e-20 6.44652 	-0.294259 	-1.88007e-20 6.43735 	-0.293584 	8.58014e-21 6.42062 	-0.29446 	-1.97226e-20 6.40669 	-0.294853 	-3.26393e-20 6.39536 	-0.294802 	-3.14569e-20 6.38466 	-0.29452 	-2.4396e-20 6.37553 	-0.293681 	-3.11855e-21 6.35879 	-0.294392 	-6.45812e-21 6.34703 	-0.294248 	-2.70752e-21 6.33576 	-0.294017 	1.75874e-21 6.32449 	-0.293787 	6.22496e-21 6.31509 	-0.292902 	1.221e-20 6.30007 	-0.293159 	8.24588e-21 6.28894 	-0.292745 	1.07381e-20 6.2778 	-0.29233 	1.32306e-20 6.26667 	-0.291915 	1.57232e-20 6.2564 	-0.291208 	2.04489e-20 6.24548 	-0.291016 	2.13342e-20 6.23634 	-0.290514 	1.89067e-20 6.22721 	-0.290013 	1.64794e-20 6.21808 	-0.289512 	1.40522e-20 6.20897 	-0.289012 	1.1632e-20 6.20712 	-0.288917 	1.1201e-20 6.20527 	-0.288821 	1.07701e-20 6.20341 	-0.288725 	1.03392e-20 6.20156 	-0.288629 	9.90831e-21 6.19997 	-0.288478 	9.49981e-21 6.18889 	-0.287771 	7.61504e-21 6.17791 	-0.287013 	5.4625e-21 6.16693 	-0.286256 	3.31011e-21 6.15596 	-0.285499 	1.15786e-21 6.14683 	-0.28435 	1.64522e-21 6.13555 	-0.283773 	6.63664e-22 6.1249 	-0.282851 	2.12926e-21 6.11426 	-0.281929 	3.59508e-21 6.10363 	-0.281008 	5.06111e-21 6.09642 	-0.279364 	1.25382e-20 6.08499 	-0.278891 	1.76817e-20 6.07472 	-0.277812 	1.99189e-20 6.06448 	-0.276725 	2.21193e-20 6.05523 	-0.275432 	2.22124e-20 6.04901 	-0.273503 	1.57923e-20 6.03803 	-0.272845 	2.14017e-20 6.02767 	-0.271873 	2.41984e-20 6.0179 	-0.270625 	2.45034e-20 6.01063 	-0.268857 	2.07169e-20 6.00488 	-0.266781 	1.45031e-20 5.99439 	-0.265948 	1.9939e-20 5.98402 	-0.26507 	2.46514e-20 5.97477 	-0.263676 	2.12844e-20 5.96948 	-0.261482 	1.19378e-20 5.96423 	-0.259288 	2.58908e-21 5.95431 	-0.258304 	1.33497e-21 5.9444 	-0.257319 	8.01589e-23 5.93674 	-0.255712 	-3.0506e-21 5.93198 	-0.253439 	-7.78021e-21 5.92728 	-0.251166 	-1.2513e-20 5.91797 	-0.250062 	-6.99504e-21 5.90868 	-0.248958 	-1.47826e-21 5.90246 	-0.247212 	-2.47728e-21 5.89826 	-0.244894 	-8.19551e-21 5.89411 	-0.242576 	-1.39144e-20 5.88545 	-0.241383 	1.34162e-21 5.87712 	-0.240134 	1.52514e-20 5.8722 	-0.238255 	1.42497e-20 5.86834 	-0.236006 	3.54918e-21 5.86476 	-0.233679 	-9.23049e-21 5.85677 	-0.232428 	-5.9483e-21 5.85032 	-0.230908 	-3.19059e-21 5.84597 	-0.229018 	-1.14945e-21 5.84221 	-0.22695 	0 5.8392 	-0.224652 	0 5.83189 	-0.22338 	0 5.8272 	-0.221668 	0 5.82343 	-0.21981 	0 5.81978 	-0.217928 	0 5.81732 	-0.215705 	0 5.81092 	-0.214419 	4.07209e-24 5.80765 	-0.212637 	6.52859e-23 5.80443 	-0.210855 	1.26469e-22 5.80126 	-0.209074 	1.87621e-22 5.79899 	-0.207063 	-3.82311e-22 5.79423 	-0.2057 	4.15246e-21 5.7915 	-0.204039 	1.77981e-21 5.78882 	-0.202378 	-5.88062e-22 5.78617 	-0.200718 	-2.95113e-21 5.78403 	-0.198952 	-8.38309e-21 5.78075 	-0.197598 	-6.46414e-21 5.77853 	-0.196105 	-4.90544e-21 5.77635 	-0.194612 	-3.34588e-21 5.7742 	-0.19312 	-1.78546e-21 5.77217 	-0.191613 	-2.22301e-22 5.77164 	-0.191371 	-3.34703e-23 5.77128 	-0.191109 	3.68342e-22 5.77091 	-0.190848 	7.70125e-22 5.77055 	-0.190586 	1.17188e-21 5.77019 	-0.19032 	1.57912e-21 5.76893 	-0.189297 	3.59286e-21 5.76769 	-0.188274 	5.60359e-21 5.76647 	-0.187252 	7.61131e-21 5.76527 	-0.18623 	9.61601e-21 5.76427 	-0.185139 	7.69057e-21 5.76318 	-0.184156 	3.77366e-21 5.762 	-0.183132 	5.29502e-23 5.76085 	-0.182108 	-3.66563e-21 5.75971 	-0.181085 	-7.38209e-21 5.75892 	-0.179938 	-1.10903e-20 5.75836 	-0.179303 	-1.67023e-20 5.75752 	-0.178599 	-1.76295e-20 5.75669 	-0.177895 	-1.8553e-20 5.75589 	-0.177192 	-1.9473e-20 5.75548 	-0.176343 	-1.00071e-20 5.75539 	-0.176091 	-4.86705e-21 5.75482 	-0.17577 	-1.62455e-21 5.75426 	-0.175449 	1.61795e-21 5.7537 	-0.175128 	4.86046e-21 5.75354 	-0.174669 	6.56291e-21 5.75385 	-0.174837 	1.78478e-20 5.75351 	-0.174954 	1.87727e-20 5.75315 	-0.175068 	1.92831e-20 5.75284 	-0.175163 	1.76565e-20 5.75276 	-0.175173 	6.20254e-21 5.75326 	-0.175779 	4.44452e-21 5.75326 	-0.176362 	2.71613e-21 5.75303 	-0.176933 	1.00034e-21 5.75287 	-0.177471 	-1.40761e-21 5.7528 	-0.177961 	-4.7832e-21 5.75344 	-0.17901 	-1.73232e-21 5.75373 	-0.180055 	0 5.75358 	-0.181094 	0 5.75346 	-0.182101 	-2.24556e-21 5.75332 	-0.18309 	-5.65328e-21 5.75403 	-0.184606 	-2.58404e-21 5.75458 	-0.186123 	2.42705e-22 5.75444 	-0.187652 	1.78142e-21 5.75421 	-0.189169 	6.47019e-21 5.75395 	-0.190683 	1.14793e-20 5.75465 	-0.192696 	1.97563e-20 5.7553 	-0.194707 	2.80342e-20 5.75515 	-0.196741 	2.82774e-20 5.75473 	-0.198784 	2.10216e-20 5.75425 	-0.200826 	1.37667e-20 5.75486 	-0.203342 	1.47086e-20 5.75541 	-0.205856 	1.56525e-20 5.75529 	-0.208401 	1.24927e-20 5.75458 	-0.210977 	5.18696e-21 5.75382 	-0.213551 	-2.11773e-21 5.75425 	-0.216578 	-1.4398e-20 5.75461 	-0.219603 	-2.66757e-20 5.75443 	-0.222671 	-2.93546e-20 5.75337 	-0.225783 	-1.95042e-20 5.75224 	-0.228892 	-9.65543e-21 5.75241 	-0.232437 	6.99232e-21 5.75249 	-0.235981 	2.29414e-20 5.75206 	-0.239584 	2.14841e-20 5.75069 	-0.243229 	4.704e-21 5.74911 	-0.246877 	-1.41584e-20 5.74895 	-0.250945 	-3.66966e-20 5.7485 	-0.255037 	-4.76095e-20 5.74762 	-0.259174 	-3.87879e-20 5.74615 	-0.263335 	-2.05778e-20 5.74406 	-0.267521 	7.49248e-21 5.74348 	-0.272113 	8.12304e-21 5.74235 	-0.276764 	1.01761e-20 5.74094 	-0.281434 	1.27657e-20 5.73937 	-0.286103 	1.55219e-20 5.73669 	-0.290822 	2.11635e-20 5.73554 	-0.295949 	2.95584e-20 5.73366 	-0.301152 	2.93518e-20 5.73165 	-0.306349 	2.9139e-20 5.72952 	-0.311542 	2.89198e-20 5.72665 	-0.316764 	2.40747e-20 5.72459 	-0.322448 	2.35873e-20 5.72205 	-0.32817 	2.68195e-20 5.71936 	-0.333887 	3.00764e-20 5.71654 	-0.339598 	3.33581e-20 5.71355 	-0.345309 	3.67849e-20 5.71349 	-0.345461 	3.69669e-20 5.71341 	-0.345615 	3.6884e-20 5.71333 	-0.345769 	3.68011e-20 5.71325 	-0.345922 	3.67182e-20 5.71318 	-0.346075 	3.66357e-20 5.71036 	-0.352115 	3.37904e-20 5.7074 	-0.358149 	3.092e-20 5.7043 	-0.364177 	2.80243e-20 5.70107 	-0.370198 	2.51033e-20 5.6973 	-0.376269 	2.02464e