# vtk DataFile Version 2.0
track0
ASCII
DATASET POLYDATA
POINTS 10930 float
-0.0205 0.001 1e-05
-0.0202034 0.00100022 1e-05
-0.0199069 0.00100067 1e-05
-0.0196103 0.00100132 1e-05
-0.0193137 0.00100216 1e-05
-0.0190172 0.0010032 1e-05
-0.0187132 0.00100461 1e-05
-0.0184093 0.00100572 1e-05
-0.0181054 0.0010068 1e-05
-0.0178015 0.00100784 1e-05
-0.0174976 0.00100885 1e-05
-0.0172058 0.00101 1e-05
-0.016914 0.00101081 1e-05
-0.0166222 0.00101159 1e-05
-0.0163305 0.00101234 1e-05
-0.0160387 0.00101307 1e-05
-0.0157586 0.00101393 1e-05
-0.0154784 0.00101461 1e-05
-0.0151983 0.00101533 1e-05
-0.0149182 0.00101609 1e-05
-0.0146381 0.00101689 1e-05
-0.0143692 0.00101781 1e-05
-0.0141002 0.00101866 1e-05
-0.0138313 0.00101956 1e-05
-0.0135624 0.00102052 1e-05
-0.0132934 0.00102152 1e-05
-0.0130366 0.00102258 1e-05
-0.0127798 0.00102363 1e-05
-0.012523 0.00102472 1e-05
-0.0122662 0.00102584 1e-05
-0.0120515 0.00102682 1e-05
-0.0120417 0.00102686 1e-05
-0.0120319 0.00102691 1e-05
-0.0120221 0.00102695 1e-05
-0.0120123 0.001027 1e-05
-0.0120025 0.00102705 1e-05
-0.0117547 0.00102821 1e-05
-0.0115068 0.00102939 1e-05
-0.0112589 0.0010306 1e-05
-0.0110111 0.00103183 1e-05
-0.0107632 0.00103308 1e-05
-0.0105252 0.0010343 1e-05
-0.0102873 0.00103554 1e-05
-0.0100493 0.0010368 1e-05
-0.00981133 0.00103807 1e-05
-0.00957337 0.00103935 1e-05
-0.00934491 0.00104058 1e-05
-0.00911645 0.00104183 1e-05
-0.00888799 0.00104309 1e-05
-0.00865954 0.00104436 1e-05
-0.00843108 0.00104563 1e-05
-0.00821175 0.00104684 1e-05
-0.00799242 0.00104807 1e-05
-0.00777309 0.0010493 1e-05
-0.00755376 0.00105054 1e-05
-0.00733443 0.00105177 1e-05
-0.00712387 0.00105294 1e-05
-0.0069133 0.00105413 1e-05
-0.00670273 0.00105531 1e-05
-0.00649217 0.0010565 1e-05
-0.0062816 0.00105769 1e-05
-0.00607944 0.0010588 1e-05
-0.00587729 0.00105993 1e-05
-0.00567514 0.00106106 1e-05
-0.00547298 0.00106218 1e-05
-0.00527083 0.00106331 1e-05
-0.00507675 0.00106436 1e-05
-0.00488267 0.00106543 1e-05
-0.0046886 0.00106649 1e-05
-0.00449452 0.00106755 1e-05
-0.00430044 0.0010686 1e-05
-0.00411412 0.00106959 1e-05
-0.0039278 0.00107058 1e-05
-0.00374147 0.00107157 1e-05
-0.00355515 0.00107256 1e-05
-0.00336883 0.00107353 1e-05
-0.00318995 0.00107445 1e-05
-0.00301107 0.00107537 1e-05
-0.00283219 0.00107629 1e-05
-0.00265331 0.00107719 1e-05
-0.00247443 0.00107809 1e-05
-0.0023027 0.00107893 1e-05
-0.00213097 0.00107977 1e-05
-0.00195924 0.0010806 1e-05
-0.0017875 0.00108142 1e-05
-0.00161577 0.00108223 1e-05
-0.0014509 0.00108298 1e-05
-0.00128603 0.00108373 1e-05
-0.00112116 0.00108446 1e-05
-0.000956289 0.00108518 1e-05
-0.000791418 0.00108588 1e-05
-0.000633135 0.00108653 1e-05
-0.000474851 0.00108716 1e-05
-0.000316567 0.00108777 1e-05
-0.000158283 0.00108836 1e-05
0 0.00108892 1e-05
0.000105677 0.00108927 1e-05
0.000211355 0.00108962 1e-05
0.000317032 0.00108995 1e-05
0.00042271 0.00109026 1e-05
0.000528387 0.00109056 1e-05
0.000634886 0.00109085 1e-05
0.000741385 0.00109113 1e-05
0.000847885 0.0010914 1e-05
0.000954384 0.00109165 1e-05
0.00106088 0.0010919 1e-05
0.00116821 0.00109212 1e-05
0.00127554 0.00109235 1e-05
0.00138286 0.00109256 1e-05
0.00149019 0.00109276 1e-05
0.00159752 0.00109295 1e-05
0.00170568 0.00109312 1e-05
0.00181384 0.00109328 1e-05
0.001922 0.00109344 1e-05
0.00203016 0.00109358 1e-05
0.00213833 0.00109371 1e-05
0.00224733 0.00109382 1e-05
0.00235633 0.00109394 1e-05
0.00246533 0.00109404 1e-05
0.00257434 0.00109413 1e-05
0.00268334 0.00109422 1e-05
0.00279319 0.00109428 1e-05
0.00290304 0.00109435 1e-05
0.00301289 0.00109441 1e-05
0.00312274 0.00109446 1e-05
0.00323259 0.00109451 1e-05
0.00334329 0.00109454 1e-05
0.003454 0.00109457 1e-05
0.0035647 0.0010946 1e-05
0.0036754 0.00109462 1e-05
0.00378611 0.00109463 1e-05
0.00389767 0.00109463 1e-05
0.00400924 0.00109464 1e-05
0.0041208 0.00109463 1e-05
0.00423237 0.00109463 1e-05
0.00434393 0.00109461 1e-05
0.00445636 0.00109459 1e-05
0.00456879 0.00109456 1e-05
0.00468123 0.00109453 1e-05
0.00479366 0.00109449 1e-05
0.00490609 0.00109445 1e-05
0.0050194 0.0010944 1e-05
0.0051327 0.00109435 1e-05
0.00524601 0.00109429 1e-05
0.00535932 0.00109423 1e-05
0.00547262 0.00109416 1e-05
0.0055495 0.00109411 1e-05
0.00562638 0.00109406 1e-05
0.00570326 0.00109401 1e-05
0.00578014 0.00109395 1e-05
0.00585543 0.00109389 1e-05
0.00589306 0.00109387 1e-05
0.00593068 0.00109383 1e-05
0.00596831 0.0010938 1e-05
0.00600593 0.00109377 1e-05
0.00604356 0.00109374 1e-05
0.00615863 0.00109364 1e-05
0.00627371 0.00109354 1e-05
0.00638878 0.00109343 1e-05
0.00650386 0.00109332 1e-05
0.00661893 0.0010932 1e-05
0.0067349 0.00109307 1e-05
0.00685087 0.00109295 1e-05
0.00696684 0.00109281 1e-05
0.00708281 0.00109268 1e-05
0.00719878 0.00109253 1e-05
0.00731565 0.00109238 1e-05
0.00743252 0.00109223 1e-05
0.00754939 0.00109207 1e-05
0.00766626 0.00109191 1e-05
0.00778313 0.00109174 1e-05
0.00790091 0.00109155 1e-05
0.00801869 0.00109137 1e-05
0.00813647 0.00109119 1e-05
0.00825425 0.001091 1e-05
0.00837203 0.00109081 1e-05
0.00849073 0.00109059 1e-05
0.00860942 0.00109039 1e-05
0.00872812 0.00109018 1e-05
0.00884682 0.00108996 1e-05
0.00896551 0.00108974 1e-05
0.00908513 0.00108949 1e-05
0.00920475 0.00108926 1e-05
0.00932437 0.00108902 1e-05
0.00944398 0.00108878 1e-05
0.0095636 0.00108853 1e-05
0.00968415 0.00108824 1e-05
0.0098047 0.00108798 1e-05
0.00992525 0.00108772 1e-05
0.0100458 0.00108744 1e-05
0.0101663 0.00108717 1e-05
0.0102878 0.00108684 1e-05
0.0104093 0.00108655 1e-05
0.0105308 0.00108625 1e-05
0.0106523 0.00108595 1e-05
0.0107738 0.00108564 1e-05
0.0108962 0.00108528 1e-05
0.0110186 0.00108496 1e-05
0.0111411 0.00108462 1e-05
0.0112635 0.00108429 1e-05
0.0113859 0.00108394 1e-05
0.0115093 0.00108355 1e-05
0.0116327 0.00108319 1e-05
0.0117561 0.00108282 1e-05
0.0118795 0.00108245 1e-05
0.0120028 0.00108207 1e-05
0.0121272 0.00108163 1e-05
0.0122515 0.00108123 1e-05
0.0123759 0.00108083 1e-05
0.0125002 0.00108041 1e-05
0.0126245 0.00107999 1e-05
0.0127498 0.00107951 1e-05
0.0128752 0.00107907 1e-05
0.0130005 0.00107862 1e-05
0.0131258 0.00107817 1e-05
0.0132511 0.0010777 1e-05
0.0133774 0.00107718 1e-05
0.0135036 0.00107669 1e-05
0.0136299 0.0010762 1e-05
0.0137562 0.0010757 1e-05
0.0138825 0.00107518 1e-05
0.0140098 0.00107461 1e-05
0.014137 0.00107407 1e-05
0.0142643 0.00107353 1e-05
0.0143915 0.00107298 1e-05
0.0145188 0.00107241 1e-05
0.0146471 0.0010718 1e-05
0.0147753 0.0010712 1e-05
0.0149036 0.00107061 1e-05
0.0150318 0.00107001 1e-05
0.0151601 0.00106939 1e-05
0.0152893 0.00106872 1e-05
0.0154186 0.00106807 1e-05
0.0155478 0.00106742 1e-05
0.0156771 0.00106677 1e-05
0.0158063 0.00106609 1e-05
0.0159366 0.00106537 1e-05
0.0160668 0.00106466 1e-05
0.0161971 0.00106395 1e-05
0.0163274 0.00106323 1e-05
0.0164576 0.00106249 1e-05
0.0165889 0.00106171 1e-05
0.0167201 0.00106094 1e-05
0.0168514 0.00106017 1e-05
0.0169827 0.00105939 1e-05
0.0171139 0.00105858 1e-05
0.0172462 0.00105774 1e-05
0.0173785 0.0010569 1e-05
0.0175108 0.00105606 1e-05
0.0176431 0.00105521 1e-05
0.0177754 0.00105434 1e-05
0.0179087 0.00105343 1e-05
0.018042 0.00105252 1e-05
0.0181753 0.0010516 1e-05
0.0183087 0.00105068 1e-05
0.018442 0.00104973 1e-05
0.0185763 0.00104875 1e-05
0.0187107 0.00104777 1e-05
0.018845 0.00104677 1e-05
0.0189794 0.00104576 1e-05
0.0191137 0.00104474 1e-05
0.0192491 0.00104369 1e-05
0.0193845 0.00104263 1e-05
0.0195199 0.00104155 1e-05
0.0196553 0.00104046 1e-05
0.0197907 0.00103935 1e-05
0.0199272 0.00103823 1e-05
0.0200636 0.00103708 1e-05
0.0202001 0.00103591 1e-05
0.0203365 0.00103473 1e-05
0.020473 0.00103354 1e-05
0.0206105 0.00103233 1e-05
0.020748 0.0010311 1e-05
0.0208855 0.00102984 1e-05
0.021023 0.00102856 1e-05
0.0211606 0.00102728 1e-05
0.0212991 0.00102599 1e-05
0.0214377 0.00102466 1e-05
0.0215763 0.00102331 1e-05
0.0217149 0.00102194 1e-05
0.0218535 0.00102056 1e-05
0.0219931 0.00101918 1e-05
0.0221328 0.00101776 1e-05
0.0222724 0.0010163 1e-05
0.0224121 0.00101483 1e-05
0.0225517 0.00101336 1e-05
0.0226925 0.00101188 1e-05
0.0228332 0.00101036 1e-05
0.022974 0.0010088 1e-05
0.0231147 0.00100723 1e-05
0.0232555 0.00100566 1e-05
0.0233973 0.00100407 1e-05
0.0235391 0.00100244 1e-05
0.023681 0.00100078 1e-05
0.0238228 0.000999104 1e-05
0.0239647 0.000997423 1e-05
0.0241076 0.000995732 1e-05
0.0242505 0.000993996 1e-05
0.0243935 0.000992227 1e-05
0.0245364 0.000990441 1e-05
0.0246794 0.000988648 1e-05
0.0248234 0.000986845 1e-05
0.0249675 0.000984995 1e-05
0.0251115 0.000983115 1e-05
0.0252556 0.000981216 1e-05
0.0253996 0.000979307 1e-05
0.0255448 0.000977385 1e-05
0.02569 0.000975415 1e-05
0.0258351 0.000973417 1e-05
0.0259803 0.0009714 1e-05
0.0261255 0.000969367 1e-05
0.0262718 0.000967323 1e-05
0.0264181 0.000965228 1e-05
0.0265644 0.000963109 1e-05
0.0267107 0.00096097 1e-05
0.026857 0.00095881 1e-05
0.0270044 0.000956637 1e-05
0.0271519 0.000954414 1e-05
0.0272993 0.000952169 1e-05
0.0274467 0.000949903 1e-05
0.0275942 0.000947615 1e-05
0.0277428 0.000945307 1e-05
0.0278914 0.000942953 1e-05
0.0280399 0.000940576 1e-05
0.0281885 0.000938176 1e-05
0.0283371 0.000935754 1e-05
0.0284869 0.000933305 1e-05
0.0286366 0.000930815 1e-05
0.0287863 0.000928302 1e-05
0.0289361 0.000925765 1e-05
0.0290858 0.000923205 1e-05
0.0292367 0.000920611 1e-05
0.0293876 0.00091798 1e-05
0.0295385 0.000915325 1e-05
0.0296894 0.000912645 1e-05
0.0298403 0.00090994 1e-05
0.0299799 0.00090742 1e-05
0.0301194 0.000904873 1e-05
0.0302589 0.000902304 1e-05
0.0303984 0.000899713 1e-05
0.0305288 0.000897269 1e-05
0.0305432 0.000896998 1e-05
0.0305576 0.000896726 1e-05
0.030572 0.000896454 1e-05
0.0305863 0.000896182 1e-05
0.0306007 0.000895909 1e-05
0.030754 0.000893003 1e-05
0.0309072 0.000890069 1e-05
0.0310605 0.000887108 1e-05
0.0312138 0.000884118 1e-05
0.031367 0.000881102 1e-05
0.0315215 0.00087804 1e-05
0.0316759 0.000874944 1e-05
0.0318304 0.000871819 1e-05
0.0319848 0.000868665 1e-05
0.0321393 0.000865482 1e-05
0.0322949 0.000862257 1e-05
0.0324506 0.000858991 1e-05
0.0326062 0.000855694 1e-05
[...]
POINT_DATA 10930
 FIELD attributes 2
p 1 10930 float
-6.00453 -6.00008 -5.99258 -5.98499 -5.97731 -5.965 -5.97143 -5.98307 -5.99471 -6.00636 -6.03189 -6.05167 -6.08454 -6.11742 -6.1503 -6.19001 -6.20464 -6.23047 -6.2563 -6.28215 -6.31322 -6.33238 -6.35766 -6.38297 -6.40829 -6.43617 -6.46013 -6.48615 -6.51218 -6.53822 -6.56 -6.56099 -6.56198 -6.56298 -6.56397 -6.56493 -6.5882 -6.61145 -6.6347 -6.65796 -6.68037 -6.70053 -6.72015 -6.73977 -6.75939 -6.77767 -6.79594 -6.81339 -6.83084 -6.84829 -6.86421 -6.88149 -6.89779 -6.9141 -6.93041 -6.94513 -6.96168 -6.97718 -6.99269 -7.0082 -7.02215 -7.03807 -7.05299 -7.06791 -7.08283 -7.0963 -7.1118 -7.12642 -7.14103 -7.15565 -7.16898 -7.18433 -7.19899 -7.21365 -7.22831 -7.24185 -7.25734 -7.27236 -7.28738 -7.3024 -7.3164 -7.33232 -7.34814 -7.36396 -7.37979 -7.39461 -7.41102 -7.42755 -7.44408 -7.46061 -7.47561 -7.49053 -7.50478 -7.51903 -7.53328 -7.54512 -7.55416 -7.56139 -7.56862 -7.57585 -7.58137 -7.58545 -7.58733 -7.58921 -7.59109 -7.59204 -7.59394 -7.5949 -7.59587 -7.59683 -7.59776 -7.60114 -7.60278 -7.60441 -7.60605 -7.60659 -7.6101 -7.6108 -7.6115 -7.6122 -7.61091 -7.61344 -7.61336 -7.61328 -7.6132 -7.61112 -7.61311 -7.6132 -7.6133 -7.6134 -7.61187 -7.61326 -7.61335 -7.61344 -7.61353 -7.61252 -7.61274 -7.61217 -7.61159 -7.61101 -7.60991 -7.60907 -7.60787 -7.60667 -7.60547 -7.60415 -7.6034 -7.60256 -7.60172 -7.60088 -7.60006 -7.59965 -7.59924 -7.59883 -7.59842 -7.59799 -7.59709 -7.59616 -7.59523 -7.5943 -7.59327 -7.5927 -7.592 -7.59131 -7.59062 -7.58975 -7.58919 -7.58847 -7.58775 -7.58702 -7.58612 -7.58535 -7.58453 -7.58371 -7.58289 -7.5821 -7.58106 -7.58033 -7.57961 -7.57889 -7.57869 -7.57743 -7.57707 -7.57671 -7.57635 -7.57722 -7.57573 -7.57584 -7.57596 -7.57607 -7.57824 -7.57637 -7.57691 -7.57744 -7.57797 -7.58146 -7.57901 -7.57985 -7.58068 -7.58152 -7.58632 -7.58314 -7.58423 -7.58533 -7.58643 -7.59259 -7.58879 -7.59005 -7.59143 -7.5933 -7.60042 -7.59652 -7.59752 -7.59925 -7.60218 -7.61017 -7.60638 -7.60712 -7.60932 -7.6135 -7.62234 -7.61895 -7.6195 -7.62221 -7.62767 -7.63714 -7.63435 -7.63473 -7.63792 -7.64454 -7.65437 -7.65233 -7.65261 -7.65623 -7.66384 -7.67379 -7.67262 -7.67293 -7.67689 -7.6852 -7.69498 -7.69463 -7.69502 -7.69924 -7.70801 -7.71749 -7.71787 -7.71841 -7.72285 -7.73195 -7.74111 -7.74224 -7.74337 -7.74818 -7.75701 -7.76584 -7.76772 -7.7696 -7.77466 -7.78311 -7.79156 -7.79415 -7.79675 -7.802 -7.81002 -7.81804 -7.82126 -7.82448 -7.82986 -7.83741 -7.84496 -7.8487 -7.85244 -7.85788 -7.86495 -7.87202 -7.87616 -7.88031 -7.88575 -7.89232 -7.8989 -7.90333 -7.90776 -7.91315 -7.91924 -7.92534 -7.92993 -7.93458 -7.93986 -7.94544 -7.95106 -7.9557 -7.96045 -7.96553 -7.97068 -7.97584 -7.98041 -7.98509 -7.98992 -7.9947 -7.99943 -8.00386 -8.00833 -8.01283 -8.01726 -8.02157 -8.02578 -8.02992 -8.03404 -8.03811 -8.04197 -8.04585 -8.04957 -8.05327 -8.05697 -8.06037 -8.06381 -8.06705 -8.07029 -8.07353 -8.07653 -8.07943 -8.08217 -8.08492 -8.08767 -8.09026 -8.09256 -8.09477 -8.09698 -8.09919 -8.10131 -8.10299 -8.10462 -8.10625 -8.10788 -8.10949 -8.11045 -8.1114 -8.11235 -8.1133 -8.1142 -8.1143 -8.11441 -8.11451 -8.11461 -8.11471 -8.11516 -8.1156 -8.11605 -8.1165 -8.11692 -8.11674 -8.1165 -8.11627 -8.11604 -8.11577 -8.11496 -8.11403 -8.1131 -8.11218 -8.11119 -8.10975 -8.10807 -8.1064 -8.10473 -8.10289 -8.1007 -8.09822 -8.09575 -8.09325 -8.09059 -8.08753 -8.08432 -8.08105 -8.07774 -8.07435 -8.07047 -8.0665 -8.06243 -8.05827 -8.05406 -8.04927 -8.04446 -8.03953 -8.0345 -8.02947 -8.02372 -8.01797 -8.0122 -8.00642 -8.00064 -7.99403 -7.98744 -7.98086 -7.97429 -7.96773 -7.96031 -7.9529 -7.94548 -7.93803 -7.93058 -7.92224 -7.91391 -7.90562 -7.89734 -7.88906 -7.87983 -7.87064 -7.8615 -7.85239 -7.84329 -7.83319 -7.82318 -7.81324 -7.80332 -7.79347 -7.78254 -7.77186 -7.76121 -7.75056 -7.74013 -7.72862 -7.71729 -7.70597 -7.69465 -7.68345 -7.67127 -7.65922 -7.64717 -7.63514 -7.62316 -7.6175 -7.61193 -7.60636 -7.60079 -7.59536 -7.58837 -7.58138 -7.57439 -7.56741 -7.56047 -7.54758 -7.53478 -7.52199 -7.5092 -7.49662 -7.48336 -7.47036 -7.45736 -7.44436 -7.43177 -7.41819 -7.40501 -7.39185 -7.37884 -7.3662 -7.35249 -7.33903 -7.3258 -7.31292 -7.30025 -7.28649 -7.27278 -7.25957 -7.24707 -7.23457 -7.2209 -7.20724 -7.19435 -7.18224 -7.17012 -7.15676 -7.14341 -7.13102 -7.11958 -7.10813 -7.09534 -7.08272 -7.0711 -7.06022 -7.04958 -7.03751 -7.02611 -7.01533 -7.00488 -6.9952 -6.98402 -6.97412 -6.96436 -6.9546 -6.94587 -6.93619 -6.9276 -6.91901 -6.91042 -6.90234 -6.89572 -6.88962 -6.88352 -6.87742 -6.87134 -6.87012 -6.86891 -6.8677 -6.86648 -6.86538 -6.85932 -6.85336 -6.84741 -6.84146 -6.83634 -6.83107 -6.82668 -6.82227 -6.81787 -6.81509 -6.81072 -6.80802 -6.80534 -6.80313 -6.80239 -6.7998 -6.79813 -6.79728 -6.79762 -6.79867 -6.79791 -6.79729 -6.79828 -6.8011 -6.80391 -6.80498 -6.80605 -6.80888 -6.81341 -6.81794 -6.82081 -6.82368 -6.82814 -6.83434 -6.84054 -6.84523 -6.85005 -6.8562 -6.86369 -6.87145 -6.87784 -6.88478 -6.89249 -6.90087 -6.91015 -6.91815 -6.92699 -6.93611 -6.94533 -6.95593 -6.96549 -6.97589 -6.98627 -6.99665 -7.008 -7.01907 -7.03055 -7.04202 -7.05348 -7.0654 -7.07763 -7.08998 -7.10231 -7.11464 -7.12703 -7.12969 -7.13234 -7.135 -7.13766 -7.14035 -7.1506 -7.16084 -7.17108 -7.18132 -7.19158 -7.20462 -7.21786 -7.23109 -7.24432 -7.25749 -7.2704 -7.28363 -7.29686 -7.31009 -7.32301 -7.33553 -7.34837 -7.36122 -7.37406 -7.38625 -7.39816 -7.41022 -7.42229 -7.43419 -7.4453 -7.4563 -7.46726 -7.47822 -7.48869 -7.4985 -7.50832 -7.51803 -7.52761 -7.53629 -7.54451 -7.55286 -7.56114 -7.56909 -7.57564 -7.58206 -7.5887 -7.59534 -7.60116 -7.60543 -7.6097 -7.61429 -7.61888 -7.62216 -7.62397 -7.62579 -7.62802 -7.63025 -7.63061 -7.62957 -7.62853 -7.62799 -7.62735 -7.62437 -7.62029 -7.61606 -7.61241 -7.60775 -7.60141 -7.59434 -7.5865 -7.57932 -7.57001 -7.55992 -7.54975 -7.53796 -7.52653 -7.51231 -7.4981 -7.48389 -7.46859 -7.45145 -7.43275 -7.41404 -7.39534 -7.3766 -7.37606 -7.37548 -7.3749 -7.37432 -7.37374 -7.35125 -7.32877 -7.3063 -7.28384 -7.25973 -7.23293 -7.20477 -7.17662 -7.14848 -7.11668 -7.08561 -7.05262 -7.01903 -6.9834 -6.94586 -6.90917 -6.87246 -6.83264 -6.7892 -6.74571 -6.70307 -6.66043 -6.61417 -6.56452 -6.5148 -6.46593 -6.41515 -6.36189 -6.30812 -6.25197 -6.1959 -6.13606 -6.07622 -6.01637 -5.95618 -5.95211 -5.9478 -5.94349 -5.93918 -5.93492 -5.87378 -5.81264 -5.75152 -5.69041 -5.62556 -5.55644 -5.4847 -5.41258 -5.33754 -5.26037 -5.18433 -5.10829 -5.02833 -4.94442 -4.86029 -4.77725 -4.69199 -4.60403 -4.51608 -4.42521 -4.37753 -4.32733 -4.27706 -4.22679 -4.18057 -4.13588 -4.09118 -4.0465 -4.00173 -3.95453 -3.85693 -3.75691 -3.65692 -3.55412 -3.44877 -3.34477 -3.24079 -3.1331 -3.02167 -2.90978 -2.80479 -2.69626 -2.58691 -2.47756 -2.3824 -2.37377 -2.36514 -2.35651 -2.34781 -2.33881 -2.21981 -2.10041 -1.98106 -1.86028 -1.73587 -1.61294 -1.49005 -1.36414 -1.23512 -1.10539 -1.00807 -0.908991 -0.808931 -0.708891 -0.618339 -0.584842 -0.551348 -0.517859 -0.484017 -0.449516 -0.31595 -0.181154 -0.0464215 0.0906642 0.22946 0.366776 0.504573 0.644409 0.784192 0.925951 0.953175 0.980577 1.00818 1.03578 1.06277 1.17725 1.29168 1.40606 1.52119 1.63783 1.78098 1.92406 2.06803 2.2128 2.35893 2.41577 2.47268 2.52972 2.58673 2.64147 2.73016 2.81882 2.90745 2.99624 3.08564 3.23092 3.37611 3.52113 3.66617 3.81252 3.87237 3.93208 3.99151 4.05093 4.10816 4.19376 4.27933 4.36487 4.45003 4.53549 4.6791 4.82263 4.96497 5.10663 5.24955 5.29328 5.33683 5.37986 5.42288 5.46492 5.56266 5.66037 5.75803 5.85465 5.95148 6.09001 6.22846 6.36432 6.50004 6.63649 6.6536 6.67065 6.68737 6.70408 6.72068 6.83798 6.95523 7.07243 7.18749 7.3026 7.42203 7.54078 7.65682 7.77282 7.88472 7.89697 7.90922 7.92147 7.9334 7.94529 8.07121 8.19653 8.32162 8.44259 8.56404 8.63186 8.6994 8.7646 8.8298 8.89441 8.94724 9.00006 9.05289 9.10394 9.15482 9.26992 9.38501 9.4966 9.60662 9.71613 9.73563 9.75506 9.77369 9.79233 9.811 9.89984 9.9887 10.0776 10.1629 10.2476 10.3297 10.4115 10.4898 10.5682 10.6488 10.6689 10.6891 10.7092 10.7285 10.7477 10.8444 10.9407 11.0354 11.1267 11.2173 11.2599 11.3022 11.3428 11.3833 11.4251 11.4722 11.5192 11.5663 11.6114 11.6559 11.7403 11.8248 11.9059 11.9857 12.0642 12.0836 12.1027 12.1211 12.1395 12.1583 12.2165 12.2746 12.3328 12.3888 12.4435 12.5161 12.5886 12.6576 12.7266 12.7938 12.8072 12.8202 12.8329 12.8455 12.8585 12.9113 12.964 13.0168 13.068 13.1177 13.1792 13.2408 13.2998 13.3578 13.4148 13.4398 13.4641 13.4879 13.5116 13.5372 13.5677 13.5982 13.6286 13.6585 13.6874 13.739 13.7903 13.8406 13.8889 13.9368 13.9837 14.0296 14.0744 14.1192 14.1631 14.1722 14.1808 14.1894 14.198 14.207 14.2399 14.2729 14.3058 14.3385 14.3698 14.4084 14.4467 14.4845 14.5208 14.5569 14.5917 14.6264 14.6597 14.6928 14.7254 14.7536 14.7806 14.8076 14.8346 14.8668 14.8689 14.871 14.873 14.8751 14.8771 14.9049 14.9327 14.9604 14.9881 15.0147 15.0399 15.0648 15.0897 15.1139 15.1378 15.1604 15.1829 15.2049 15.2264 15.2478 15.268 15.288 15.3074 15.3268 15.346 15.364 15.3815 15.3988 15.4162 15.4335 15.4453 15.457 15.4686 15.4802 15.4936 15.4972 15.5008 15.5043 15.5079 15.5114 15.5255 15.5395 15.5535 15.5675 15.5813 15.5936 15.6061 15.6186 15.631 15.6433 15.6541 15.6652 15.6762 15.6872 15.6981 15.7078 15.7174 15.7273 15.737 15.7468 15.7553 15.7639 15.7725 15.7812 15.7899 15.7975 15.805 15.8126 15.8204 15.8282 15.8349 15.8417 15.8484 15.8553 15.8623 15.8683 15.8744 15.8805 15.8866 15.8929 15.8984 15.9039 15.9094 15.915 15.9207 15.9258 15.9309 15.936 15.9412 15.9465 15.9513 15.9563 15.9612 15.9661 15.9712 15.976 15.981 15.986 15.991 15.996 16.0012 16.0065 16.0118 16.0171 16.0224 16.0234 16.0243 16.0253 16.0263 16.0274 16.0324 16.0375 16.0425 16.0475 16.0526 16.0596 16.0667 16.0737 16.0807 16.0879 16.0967 16.1057 16.1146 16.1235 16.1332 16.1425 16.1508 16.159 16.1671 16.1753 16.1849 16.1947 16.2045 16.2142 16.2244 16.2222 16.2182 16.2139 16.2092 16.1877 16.1525 16.117 16.0813 16.0447 16.0029 15.9586 15.9182 15.8803 15.8448 15.8112 15.7756 15.74 15.7047 15.6696 15.6345 15.5971 15.5596 15.5201 15.4785 15.4369 15.3926 15.3482 15.3028 15.2564 15.21 15.1608 15.1116 15.0616 15.0111 14.9605 14.9071 14.8533 14.7987 14.7435 14.6878 14.6292 14.5698 14.5096 14.4489 14.3872 14.3224 14.2562 14.1896 14.123 14.0547 13.983 13.9093 13.8356 13.762 13.6868 13.6068 13.5252 13.4436 13.362 13.2794 13.1901 13.0996 13.0091 12.9186 12.8276 12.7525 12.6768 12.6011 12.5255 12.4378 12.4153 12.3929 12.3704 12.3479 12.3253 12.2138 12.1021 11.9904 11.8787 11.7657 11.6426 11.5179 11.3933 11.2686 11.1415 11.0051 10.8656 10.7261 10.5865 10.4427 10.2912 10.135 9.97881 9.82259 9.6607 9.49308 9.3167 9.1403 8.96288 8.77741 8.58603 8.39012 8.19299 7.9941 7.7911 7.58158 7.36107 7.13277 6.89493 6.64733 6.39164 6.13896 5.89106 5.64848 5.40848 5.16054 4.8989 4.58035 4.19759 3.8053 3.39936 2.99367 2.70836 2.53556 2.36284 2.18414 2.00557 1.52824 0.763556 0