/*--------------------------------*- C++ -*----------------------------------*\
| =========                 |                                                 |
| \\      /  F ield         | OpenFOAM: The Open Source CFD Toolbox           |
|  \\    /   O peration     | Version:  v1712                                 |
|   \\  /    A nd           | Web:      www.OpenFOAM.com                      |
|    \\/     M anipulation  |                                                 |
\*---------------------------------------------------------------------------*/
FoamFile
{
    version     2.0;
    format      ascii;
    class       volScalarField;
    location    "100";
    object      epsilon;
}
// * * * * * * * * * * * * * * * * * * * * * * * * * * * * * * * * * * * * * //

dimensions      [0 2 -3 0 0 0 0];


internalField   nonuniform List<scalar> 
12225
(
1085.6
2467.87
3645.42
4414.9
4812.3
4980.97
4975.89
4927.29
4841.78
4730.65
4622.45
4519.56
4428.15
4343.08
4272.82
4203.83
4156.3
4094.04
81.2071
262.678
438.37
584.61
690.879
762.848
804.62
829.576
846.329
856.601
865.919
873.133
882.013
889.946
899.002
908.638
914.854
930.969
20.5547
51.215
83.4042
112.588
136.833
156.223
170.057
179.881
186.259
190.721
193.347
195.482
196.678
198.135
199.111
200.353
202.214
205.327
14.7501
21.8697
30.0047
38.5201
46.1921
53.0463
58.5966
63.2555
66.7266
69.6203
71.5769
73.2857
74.2707
75.2662
75.6678
76.2916
76.4801
77.1894
14.3591
16.3321
18.4501
21.4931
24.4318
27.2633
29.7293
31.9786
33.8101
35.4682
36.733
37.9088
38.7271
39.5471
40.0324
40.594
40.9018
41.2848
14.6442
14.9535
15.4256
16.4577
17.6065
18.8286
19.9674
21.0745
22.0303
22.9433
23.6842
24.4077
24.9478
25.5156
25.8801
26.3293
26.5595
26.936
14.7183
14.6385
14.6734
14.8755
15.2169
15.683
16.1619
16.6712
17.1368
17.6086
18.0078
18.4171
18.7343
19.0823
19.3151
19.6134
19.767
20.0532
14.7545
14.5907
14.4691
14.4209
14.4417
14.5151
14.6473
14.8241
15.0016
15.2013
15.3781
15.5744
15.7307
15.9122
16.0372
16.2029
16.2911
16.4639
14.7641
14.5919
14.4345
14.3029
14.2031
14.1371
14.0972
14.0986
14.1106
14.1412
14.1779
14.2341
14.2786
14.3416
14.3842
14.4473
14.484
14.5535
14.7656
14.5942
14.432
14.2829
14.1466
14.0296
13.9257
13.8438
13.7745
13.7225
13.6772
13.6482
13.6203
13.6061
13.5889
13.5831
13.5723
13.5808
14.7657
14.5945
14.4323
14.2806
14.137
14.0052
13.8817
13.7707
13.6681
13.5779
13.4941
13.4221
13.354
13.2974
13.2408
13.1974
13.1474
13.1178
14.7657
14.5943
14.4323
14.2801
14.1358
14.0008
13.8729
13.7541
13.6419
13.5388
13.4412
13.3526
13.268
13.1926
13.1189
13.0553
12.9899
12.9372
14.7657
14.5941
14.4321
14.2797
14.1353
13.9995
13.8708
13.7498
13.6349
13.5273
13.425
13.3297
13.2387
13.1546
13.0735
12.9995
12.9271
12.862
14.7657
14.594
14.4319
14.2792
14.1349
13.9988
13.8699
13.7482
13.6328
13.5238
13.4203
13.3226
13.2297
13.1421
13.0585
12.9799
12.9047
12.8341
14.7657
14.5938
14.4317
14.2789
14.1345
13.9981
13.8692
13.7472
13.6317
13.5223
13.4185
13.3202
13.2267
13.1382
13.0539
12.974
12.8978
12.8256
14.7657
14.5938
14.4316
14.2786
14.1341
13.9976
13.8685
13.7464
13.6307
13.5212
13.4172
13.3187
13.2251
13.1362
13.0517
12.9715
12.895
12.8224
14.7657
14.5937
14.4315
14.2784
14.1338
13.9972
13.868
13.7458
13.63
13.5203
13.4162
13.3175
13.2238
13.1348
13.0502
12.9697
12.8932
12.8204
14.7657
14.5937
14.4314
14.2783
14.1336
13.9969
13.8677
13.7453
13.6294
13.5196
13.4155
13.3167
13.2228
13.1337
13.049
12.9685
12.8918
12.8189
14.7657
14.5937
14.4314
14.2782
14.1336
13.9968
13.8675
13.7451
13.6292
13.5193
13.4151
13.3162
13.2224
13.1332
13.0484
12.9678
12.8912
12.8182
14.7657
14.5937
14.4315
14.2783
14.1337
13.997
13.8677
13.7453
13.6294
13.5195
13.4153
13.3164
13.2226
13.1334
13.0487
12.9681
12.8915
12.8186
14.7657
14.5937
14.4316
14.2785
14.1339
13.9972
13.868
13.7457
13.6299
13.5201
13.4161
13.3175
13.2239
13.135
13.0508
12.9706
12.8946
12.8222
14.7657
14.5938
14.4317
14.2786
14.1343
13.9977
13.869
13.7472
13.6325
13.5239
13.4218
13.325
13.2342
13.1481
13.0674
12.9905
12.919
12.8502
14.7657
14.5937
14.4319
14.2789
14.1361
14.002
13.8782
13.7628
13.6572
13.5594
13.4706
13.3882
13.314
13.2445
13.1828
13.1236
13.0728
13.0212
14.7644
14.5922
14.4335
14.2871
14.1628
14.0551
13.9689
13.8978
13.8459
13.8049
13.7783
13.7582
13.7484
13.7419
13.7425
13.7439
13.7519
13.7509
14.7478
14.5944
14.4764
14.4102
14.4235
14.4614
14.5555
14.6709
14.8173
14.9618
15.1244
15.2721
15.433
15.5696
15.7211
15.839
15.9798
16.0738
14.6504
14.7821
14.9369
15.3418
15.9229
16.5513
17.2346
17.8791
18.5393
19.1236
19.7152
20.2125
20.7235
21.1287
21.5631
21.8803
22.2502
22.4857
14.5719
16.1273
17.9726
20.4204
22.9246
25.2675
27.5497
29.5567
31.4962
33.1094
34.694
35.9235
37.1869
38.0779
39.0742
39.6865
40.4755
40.8672
16.544
25.88
36.7212
46.5575
55.8704
64.2818
72.1137
78.7579
84.8243
89.617
94.0455
97.211
100.355
102.235
104.5
105.466
107.187
107.545
45.7965
105.215
164.45
217.257
267.882
313.505
353.737
386.197
413.34
433.786
450.75
462.873
473.08
479.98
487.036
490.549
496.4
497.758
632.343
1081.16
1534.75
1880.97
2183.45
2431.66
2631.41
2772.74
2875.85
2931.67
2968.56
2969.32
2962.23
2945.15
2917.13
2883.74
2847.85
2810.39
1.41919
1.99005
3.65849
5.31519
6.80911
8.10185
9.19021
10.0763
10.9362
11.7276
12.4844
13.266
14.1522
15.2111
16.5351
18.2159
20.2949
22.7359
25.5482
28.7454
32.3807
36.5012
41.2054
46.5222
52.4832
59.105
66.4319
74.4498
83.1647
92.536
102.551
113.145
124.296
135.928
148.015
160.478
173.296
186.396
199.766
213.342
227.121
241.048
255.128
269.315
283.622
298.008
312.495
327.053
341.702
356.413
371.205
386.052
400.973
415.943
430.976
446.052
461.179
476.341
491.541
506.765
522.011
537.269
552.53
567.788
583.023
598.235
613.383
628.479
643.481
658.416
673.238
687.986
702.607
717.153
731.56
745.895
760.084
774.209
788.19
802.12
815.904
829.657
843.295
856.982
870.661
884.549
898.526
912.516
926.291
940.623
954.771
969.144
983.497
997.85
1012.09
1026.02
1039.26
1050.99
1059.52
1059.24
1071.7
1099.99
1107.8
1121.66
1133.02
1144.86
1156.42
1167.21
1171.96
1196.76
1200.31
1207.8
1210.42
1207.63
1212.92
1225.56
1222.33
1224.89
1228.27
1234.19
1231.76
1227.61
1221.96
1214.15
1204.78
1193.68
1180.86
1166.37
1150.09
1132.02
1112.19
1090.7
1067.62
1043.09
1017.06
989.409
960.588
930.729
900.034
868.743
836.994
804.843
772.966
741.644
709.517
682.341
662.001
642.777
623.771
604.95
586.418
568.216
550.494
533.118
515.938
499.245
483.344
467.987
453.04
438.582
424.71
411.503
398.978
387.068
375.75
365.027
354.891
345.304
336.248
327.697
319.626
311.979
304.762
297.788
291.331
284.456
278.799
270.556
264.345
243.284
7.03557
4.42215
4.22945
4.50001
4.95857
5.49396
6.07808
6.71283
7.41828
8.19119
9.04491
10.0052
11.1065
12.3847
13.8741
15.6017
17.5812
19.8136
22.3007
25.0437
28.0479
31.3167
34.8539
38.6529
42.7057
47.0004
51.527
56.2686
61.2116
66.3181
71.5699
76.9468
82.4354
88.0188
93.6879
99.4304
105.241
111.112
117.04
123.019
129.049
135.124
141.246
147.413
153.626
159.884
166.195
172.561
178.973
185.422
191.911
198.434
204.992
211.582
218.202
224.848
231.519
238.211
244.921
251.645
258.379
265.118
271.859
278.597
285.325
292.039
298.73
305.394
312.022
318.614
325.162
331.667
338.12
344.524
350.87
357.161
363.39
369.563
375.671
381.723
387.712
393.653
399.544
405.406
411.238
417.053
422.823
428.536
434.194
439.854
445.42
450.925
456.316
461.574
466.649
471.473
475.951
479.974
483.485
486.737
491.651
497.174
500.503
504.477
508.033
511.592
515.203
518.876
522.121
526.34
527.941
529.556
529.214
532.467
532.765
536.953
536.932
536.694
537.71
538.437
538.775
537.212
535.425
532.859
529.771
526.088
521.812
516.931
511.42
505.249
498.426
490.912
482.724
473.889
464.41
454.284
443.612
432.445
420.848
408.891
396.633
384.121
371.481
358.819
345.944
333.683
322.668
312.159
301.869
291.757
281.852
272.177
262.77
253.632
244.626
235.745
227.189
218.944
210.981
203.313
195.952
188.927
182.251
175.909
169.888
164.185
158.793
153.7
148.894
144.364
140.1
136.08
132.313
128.734
125.451
122.212
119.444
116.937
115.924
116.63
14.5732
7.52655
6.33347
6.17247
6.36101
6.73433
7.23216
7.83556
8.54831
9.38028
10.3474
11.4699
12.7695
14.2658
15.9736
17.9007
20.0478
22.4091
24.9769
27.7423
30.6978
33.8353
37.1472
40.6244
44.2581
48.0405
51.9676
55.9847
60.0579
64.2194
68.4728
72.8133
77.2346
81.7291
86.2917
90.9176
95.6055
100.355
105.161
110.02
114.929
119.888
124.896
129.95
135.05
140.197
145.389
150.625
155.903
161.221
166.577
171.97
177.398
182.861
188.355
193.879
199.431
205.008
210.606
216.224
221.858
227.503
233.156
238.813
244.467
250.116
255.752
261.37
266.966
272.533
278.067
283.563
289.014
294.417
299.766
305.057
310.285
315.446
320.537
325.557
330.502
335.373
340.17
344.892
349.536
354.097
358.567
362.941
367.217
371.396
375.461
379.404
383.207
386.857
390.333
393.619
396.702
399.593
402.354
405.14
408.173
411.094
413.565
416.07
418.45
420.785
423.085
425.278
427.307
429.246
430.543
431.707
432.623
434.058
434.936
436.255
436.701
436.785
436.831
436.785
436.357
435.281
433.902
432.058
429.797
427.084
423.902
420.229
416.043
411.322
406.059
400.241
393.876
386.976
379.553
371.628
363.247
354.453
345.29
335.809
326.054
316.067
305.914
295.669
285.379
275.346
265.81
256.605
247.613
238.809
230.204
221.819
213.676
205.782
198.103
190.634
183.432
176.435
169.661
163.138
156.859
150.848
145.117
139.659
134.47
129.547
124.886
120.477
116.313
112.384
108.685
105.202
101.935
98.8565
96.0099
93.3031
90.9278
88.6961
87.2377
87.2738
22.7967
10.7485
8.70127
8.22653
8.2682
8.57514
9.06038
9.6934
10.4686
11.3924
12.4778
13.7404
15.1948
16.8513
18.7148
20.7831
23.0485
25.499
28.1215
30.9031
33.8325
36.8999
40.0969
43.4151
46.8463
50.3803
54.003
57.7275
61.5663
65.5018
69.5288
73.6457
77.8462
82.1195
86.4591
90.8577
95.3051
99.8219
104.403
109.046
113.75
118.512
123.33
128.204
133.131
138.111
143.143
148.224
153.353
158.53
163.752
169.018
174.327
179.677
185.068
190.496
195.96
201.457
206.986
212.542
218.123
223.724
229.343
234.973
240.612
246.252
251.888
257.515
263.127
268.716
274.276
279.801
285.282
290.715
296.09
301.401
306.641
311.804
316.884
321.876
326.775
331.577
336.276
340.868
345.346
349.704
353.933
358.028
361.986
365.804
369.474
372.988
376.34
379.522
382.527
385.353
388.007
390.51
392.902
395.239
397.544
399.723
401.722
403.64
405.46
407.203
408.859
410.396
411.79
413.021
413.997
414.839
415.556
416.319
416.803
417.258
417.358
417.016
416.71
416.192
415.367
414.161
412.636
410.737
408.455
405.763
402.636
399.05
394.983
390.417
385.34
379.743
373.621
366.989
359.866
352.275
344.252
335.835
327.064
317.981
308.632
299.071
289.371
279.613
269.874
260.296
250.994
241.938
233.091
224.447
216.017
207.819
199.871
192.181
184.741
177.554
170.634
163.968
157.554
151.395
145.435
139.715
134.243
129.016
124.034
119.297
114.803
110.544
106.515
102.709
99.1215
95.7429
92.5696
89.5893
86.8199
84.2262
81.9015
79.7764
78.1173
77.4949
31.1076
14.1414
11.2279
10.4607
10.3796
10.6404
11.1261
11.7902
12.618
13.6101
14.7744
16.1212
17.6594
19.3942
21.3257
23.4478
25.7506
28.221
30.8455
33.6115
36.5086
39.5283
42.6642
45.911
49.2647
52.7216
56.2795
59.9398
63.7034
67.5659
71.5228
75.5685
79.7008
83.9193
88.2221
92.6075
97.0765
101.626
106.252
110.953
115.725
120.569
125.48
130.458
135.501
140.607
145.775
151.003
156.29
161.634
167.034
172.489
177.997
183.558
189.169
194.829
200.536
206.288
212.083
217.917
223.786
229.689
235.619
241.573
247.544
253.528
259.518
265.506
271.486
277.45
283.39
289.296
295.16
300.972
306.724
312.405
318.007
323.52
328.936
334.246
339.444
344.521
349.47
354.282
358.95
363.463
367.815
371.999
376.011
379.846
383.501
386.971
390.252
393.341
396.238
398.943
401.467
403.825
406.042
408.142
410.126
411.972
413.666
415.234
416.674
417.991
419.179
420.23
421.137
421.886
422.447
422.896
423.134
423.178
423.131
422.976
422.542
421.897
421.09
420.062
418.763
417.16
415.246
412.992
410.374
407.368
403.945
400.081
395.754
390.946
385.643
379.836
373.522
366.715
359.427
351.684
343.513
334.951
326.034
316.81
307.335
297.675
287.902
278.093
268.323
258.684
249.244
240.015
230.994
222.187
213.61
205.279
197.211
189.415
181.894
174.649
167.687
161.002
154.591
148.449
142.554
136.911
131.495
126.303
121.34
116.611
112.112
107.84
103.79
99.9604
96.3444
92.937
89.7312
86.7224
83.9193
81.3095
78.9411
76.8012
75.0182
73.9104
38.9914
17.5037
13.7788
12.7413
12.5536
12.7747
13.2602
13.9467
14.8103
15.8449
17.0528
18.4396
20.0104
21.7674
23.7091
25.8293
28.1189
30.5667
33.1612
35.892
38.7506
41.7303
44.8267
48.0366
51.3581
54.79
58.3318
61.9835
65.745
69.6144
73.5901
77.6696
81.8515
86.1348
90.518
94.9999
99.5792
104.254
109.021
113.878
118.823
123.854
128.969
134.164
139.439
144.792
150.22
155.722
161.297
166.943
172.659
178.443
184.295
190.213
196.196
202.242
208.349
214.515
220.739
227.016
233.344
239.719
246.136
252.59
259.076
265.587
272.115
278.653
285.192
291.722
298.234
304.717
311.16
317.552
323.879
330.131
336.295
342.36
348.314
354.145
359.843
365.397
370.797
376.031
381.089
385.961
390.637
395.11
399.374
403.425
407.26
410.874
414.267
417.436
420.383
423.113
425.632
427.952
430.088
432.054
433.853
435.478
436.93
438.213
439.332
440.288
441.083
441.705
442.176
442.492
442.566
442.404
442.104
441.667
441.076
440.321
439.353
438.178
436.8
435.194
433.331
431.186
428.74
425.97
422.849
419.353
415.455
411.13
406.354
401.11
395.381
389.16
382.445
375.241
367.561
359.427
350.866
341.913
332.613
323.022
313.2
303.216
293.14
283.045
272.998
263.069
253.312
243.751
234.403
225.281
216.406
207.793
199.46
191.416
183.668
176.219
169.07
162.22
155.663
149.393
143.397
137.67
132.196
126.967
121.954
117.16
112.587
108.234
104.099
100.182
96.4793
92.9874
89.6994
86.6156
83.7382
81.0645
78.6211
76.4161
74.5226
73.0627
46.2583
20.7186
16.2564
14.9707
14.6854
14.8679
15.3483
16.047
16.9305
17.9862
19.2115
20.6081
22.1784
23.9234
25.8414
27.9279
30.176
32.5775
35.1238
37.8071
40.621
43.5608
46.6233
49.8066
53.1098
56.5327
60.0755
63.7386
67.522
71.4255
75.4484
79.5901
83.8499
88.2268
92.72
97.3282
102.05
106.884
111.827
116.878
122.034
127.293
132.653
138.111
143.666
149.314
155.056
160.887
166.808
172.817
178.912
185.093
191.358
197.706
204.135
210.646
217.235
223.901
230.642
237.455
244.336
251.282
258.288
265.348
272.457
279.606
286.788
293.993
301.212
308.434
315.646
322.837
329.992
337.098
344.14
351.104
357.974
364.735
371.373
377.873
384.22
390.401
396.402
402.21
407.811
413.193
418.344
423.256
427.922
432.335
436.492
440.389
444.024
447.398
450.512
453.37
455.977
458.343
460.478
462.389
464.084
465.561
466.824
467.875
468.715
469.346
469.787
469.981
469.935
469.732
469.294
468.656
467.826
466.811
465.609
464.212
462.603
460.774
458.722
456.431
453.882
451.057
447.937
444.501
440.727
436.589
432.064
427.126
421.754
415.928
409.632
402.858
395.6
387.863
379.657
371.003
361.932
352.482
342.704
332.655
322.398
311.998
301.525
291.045
280.623
270.318
260.176
250.23
240.503
231.016
221.79
212.843
204.191
195.846
187.815
180.102
172.707
165.628
158.86
152.395
146.225
140.339
134.726
129.375
124.267
119.385
114.709
110.243
105.992
101.958
98.1411
94.538
91.1453
87.9606
84.9854
82.2208
79.6828
77.3844
75.3747
73.646
53.3321
23.828
18.6259
17.0857
16.6979
16.8363
17.3043
18.0056
18.8971
19.9597
21.1862
22.5752
24.1271
25.8423
27.7201
29.7576
31.9507
34.2941
36.7823
39.4101
42.1732
45.0683
48.0936
51.2481
54.5315
57.9442
61.487
65.1608
68.9664
72.9042
76.9749
81.1785
85.5152
89.9846
94.5863
99.3198
104.184
109.177
114.298
119.545
124.915
130.407
136.019
141.748
147.592
153.55
159.619
165.799
172.086
178.481
184.982
191.587
198.297
205.111
212.026
219.042
226.159
233.373
240.683
248.087
255.58
263.16
270.821
278.557
286.361
294.227
302.143
310.101
318.089
326.094
334.102
342.1
350.071
357.998
365.865
373.653
381.344
388.919
396.361
403.651
410.772
417.705
424.434
430.941
437.212
443.23
448.983
454.459
459.648
464.543
469.139
473.431
477.416
481.095
484.468
487.539
490.312
492.793
494.991
496.912
498.562
499.946
501.065
501.925
502.525
502.816
502.838
502.616
502.155
501.455
500.501
499.307
497.878
496.22
494.335
492.218
489.863
487.265
484.419
481.316
477.946
474.296
470.352
466.096
461.51
456.575
451.268
445.568
439.455
432.909
425.916
418.465
410.551
402.177
393.355
384.108
374.47
364.481
354.192
343.657
332.937
322.097
311.2
300.311
289.489
278.79
268.257
257.924
247.82
237.968
228.39
219.105
210.129
201.476
193.152
185.162
177.506
170.18
163.18
156.498
150.125
144.052
138.266
132.756
127.508
122.504
117.718
113.128
108.749
104.587
100.644
96.9195
93.4103
90.1144
87.0321
84.1654
81.524
79.1199
76.9885
75.0483
62.0573
27.0993
20.9215
19.0577
18.5405
18.6204
19.0661
19.7616
20.6531
21.7148
22.9349
24.309
25.836
27.5158
29.3484
31.3326
33.4667
35.748
38.1736
40.7408
43.4471
46.2909
49.2713
52.3883
55.6424
59.0345
62.5661
66.2385
70.0534
74.0122
78.116
82.3661
86.7631
91.3076
96
100.84
105.828
110.962
116.243
121.668
127.236
132.946
138.795
144.783
150.907
157.165
163.556
170.079
176.732
183.515
190.426
197.464
204.63
211.922
219.34
226.882
234.549
242.339
250.249
258.278
266.422
274.676
283.037
291.498
300.052
308.69
317.401
326.176
335
343.861
352.741
361.625
370.494
379.329
388.109
396.813
405.421
413.909
422.255
430.439
438.436
446.227
453.79
461.105
468.153
474.915
481.376
487.52
493.335
498.813
503.945
508.725
513.151
517.219
520.93
524.287
527.292
529.951
532.27
534.254
535.91
537.244
538.263
538.953
539.284
539.264
538.96
538.353
537.446
536.242
534.738
532.942
530.857
528.491
525.846
522.922
519.72
516.238
512.474
508.426
504.09
499.461
494.531
489.29
483.726
477.825
471.571
464.949
457.941
450.531
442.708
434.461
425.788
416.693
407.192
397.31
387.078
376.537
365.733
354.717
343.545
332.277
320.973
309.693
298.495
287.43
276.539
265.857
255.413
245.232
235.336
225.745
216.474
207.538
198.944
190.696
182.793
175.232
168.008
161.113
154.54
148.277
142.313
136.636
131.232
126.087
121.178
116.464
111.955
107.665
103.597
99.7505
96.1242
92.7159
89.5252
86.5536
83.8068
81.2936
79.0397
76.9242
70.3525
30.132
22.9996
20.8088
20.1554
20.1709
20.5884
21.2732
22.1609
23.2189
24.4312
25.7903
27.2934
28.9398
30.7298
32.6635
34.7409
36.9613
39.324
41.8281
44.4733
47.2591
50.1861
53.2551
56.4673
59.8246
63.3292
66.9831
70.7889
74.7487
78.8647
83.1387
87.5725
92.1672
96.9241
101.844
106.928
112.175
117.587
123.163
128.902
134.804
140.867
147.09
153.473
160.013
166.709
173.561
180.568
187.729
195.044
202.512
210.133
217.906
225.833
233.911
242.141
250.522
259.051
267.728
276.548
285.507
294.602
303.824
313.167
322.62
332.174
341.816
351.531
361.303
371.116
380.949
390.783
400.594
410.359
420.055
429.656
439.135
448.468
457.626
466.585
475.319
483.803
492.012
499.923
507.515
514.768
521.664
528.188
534.328
540.073
545.416
550.351
554.876
558.988
562.69
565.982
568.87
571.357
573.448
575.151
576.472
577.415
577.93
578.04
577.78
577.152
576.158
574.799
573.077
570.994
568.554
565.763
562.626
559.147
555.332
551.182
546.703
541.896
536.766
531.316
525.549
519.465
513.064
506.343
499.297
491.92
484.204
476.139
467.715
458.925
449.767
440.242
430.356
420.126
409.577
398.738
387.648
376.346
364.875
353.287
341.633
329.968
318.348
306.83
295.46
284.276
273.312
262.595
252.151
242
232.16
222.65
213.481
204.664
196.201
188.09
180.328
172.91
165.829
159.077
152.642
146.514
140.68
135.127
129.841
124.802
119.965
115.334
110.925
106.74
102.781
99.0447
95.5304
92.2363
89.1634
86.3144
83.6947
81.3223
79.0588
77.5722
32.7517
24.7725
22.2847
21.5017
21.4577
21.8434
22.5158
23.3991
24.4543
25.6612
27.0093
28.494
30.1137
31.8685
33.7589
35.7861
37.9508
40.254
42.6963
45.2788
48.0027
50.8696
53.8814
57.0405
60.3497
63.8119
67.4306
71.2089
75.1503
79.2577
83.534
87.9813
92.6012
97.3956
102.367
107.516
112.847
118.36
124.057
129.939
136.005
142.256
148.691
155.309
162.11
169.094
176.26
183.607
191.136
198.847
206.74
214.814
223.07
231.509
240.131
248.934
257.919
267.084
276.427
285.945
295.635
305.49
315.504
325.669
335.975
346.409
356.959
367.607
378.338
389.13
399.962
410.811
421.651
432.457
443.2
453.851
464.379
474.756
484.95
494.931
504.669
514.134
523.297
532.133
540.614
548.717
556.422
563.709
570.564
576.974
582.928
588.42
593.444
597.999
602.084
605.699
608.848
611.535
613.762
615.536
616.864
617.733
618.12
618.052
617.542
616.594
615.208
613.385
611.127
608.435
605.312
601.764
597.794
593.411
588.618
583.424
577.836
571.863
565.513
558.799
551.733
544.326
536.588
528.527
520.152
511.468
502.48
493.191
483.601
473.714
463.535
453.069
442.325
431.321
420.079
408.63
397.004
385.235
373.355
361.405
349.43
337.477
325.592
313.837
302.25
290.866
279.712
268.814
258.195
247.875
237.87
228.195
218.868
209.895
201.28
193.02
185.111
177.546
170.321
163.428
156.856
150.593
144.627
138.945
133.534
128.373
123.42
118.682
114.169
109.884
105.827
101.996
98.3874
95.0008
91.8356
88.8922
86.1735
83.6911
81.3025
83.4617
34.8779
26.1936
23.4522
22.5535
22.4567
22.8168
23.4792
24.3604
25.4162
26.6224
27.966
29.4404
31.0428
32.7725
34.6302
36.6173
38.7355
40.9866
43.3725
45.8957
48.5585
51.3638
54.3147
57.4147
60.6678
64.0783
67.6506
71.3894
75.2995
79.3849
83.6499
88.0985
92.7267
97.5383
102.537
107.724
113.111
118.701
124.496
130.499
136.709
143.129
149.759
156.598
163.649
170.91
178.382
186.066
193.961
202.069
210.39
218.924
227.672
236.635
245.814
255.207
264.816
274.638
284.671
294.914
305.36
316.006
326.843
337.862
349.053
360.402
371.895
383.512
395.236
407.043
418.91
430.811
442.716
454.596
466.421
478.155
489.767
501.22
512.481
523.515
534.286
544.76
554.906
564.692
574.087
583.065
591.6
599.671
607.26
614.351
620.931
626.993
632.529
637.535
642.012
645.958
649.374
652.264
654.631
656.478
657.809
658.614
658.886
658.634
657.862
656.577
654.78
652.469
649.644
646.305
642.453
638.092
633.227
627.864
622.01
615.674
608.867
601.604
593.9
585.775
577.252
568.351
559.097
549.513
539.623
529.451
519.018
508.343
497.441
486.327
475.023
463.532
451.867
440.047
428.095
416.036
403.889
391.691
379.461
367.227
355.024
342.884
330.84
318.955
307.266
295.795
284.567
273.602
262.92
252.537
242.467
232.723
223.328
214.287
205.601
197.266
189.278
181.63
174.319
167.337
160.674
154.319
148.258
142.48
136.97
131.705
126.658
121.836
117.243
112.88
108.746
104.839
101.154
97.6904
94.4465
91.4212
88.6149
86.0345
83.5425
87.8665
36.4683
27.2446
24.3037
23.3117
23.1721
23.5129
24.1696
25.0527
26.1138
27.3257
28.673
30.147
31.7435
33.461
35.2997
37.2608
39.3462
41.5583
43.8999
46.3743
48.9849
51.7358
54.6313
57.6763
60.8762
64.2364
67.763
71.463
75.3427
79.4058
83.6563
88.0989
92.7251
97.5459
102.566
107.785
113.225
118.886
124.773
130.89
137.243
143.832
150.659
157.725
165.031
172.58
180.371
188.407
196.687
205.212
213.985
223.005
232.273
241.791
251.559
261.577
271.844
282.359
293.12
304.124
315.366
326.84
338.536
350.446
362.557
374.854
387.32
399.936
412.679
425.526
438.448
451.417
464.401
477.367
490.28
503.103
515.797
528.325
540.648
552.725
564.518
575.989
587.102
597.819
608.108
617.938
627.28
636.11
644.406
652.15
659.328
665.929
671.946
677.373
682.21
686.454
690.108
693.171
695.647
697.537
698.846
699.569
699.695
699.221
698.144
696.482
694.232
691.386
687.942
683.898
679.254
674.011
668.173
661.744
654.733
647.15
639.01
630.33
621.135
611.45
601.311
590.75
579.808
568.523
556.946
545.114
533.071
520.863
508.513
496.051
483.451
470.778
458.073
445.36
432.664
420.008
407.396
394.891
382.429
370.027
357.712
345.506
333.424
321.562
309.926
298.526
287.378
276.497
265.898
255.593
245.591
235.898
226.544
217.537
208.876
200.555
192.57
184.912
177.585
170.579
163.885
157.489
151.381
145.547
139.973
134.636
129.531
124.658
120.016
115.604
111.42
107.46
103.721
100.2
96.8952
93.804
90.9254
88.2624
85.6882
90.7424
37.5143
27.9276
24.8483
23.7901
23.6212
23.9512
24.6085
25.4996
26.5731
27.7994
29.161
30.6475
32.2533
33.9757
35.814
37.7692
39.8429
42.0376
44.3567
46.8038
49.3836
52.1009
54.9616
57.9718
61.1391
64.4694
67.9688
71.6447
75.5042
79.5522
83.7929
88.2293
92.8679
97.7162
102.781
108.07
113.592
119.356
125.369
131.637
138.165
144.956
152.014
159.342
166.946
174.826
182.984
191.422
200.14
209.139
218.421
227.986
237.836
247.971
258.391
269.096
280.084
291.354
302.903
314.727
326.819
339.173
351.777
364.621
377.69
390.968
404.435
418.069
431.846
445.737
459.714
473.743
487.791
501.819
515.79
529.663
543.397
556.949
570.276
583.336
596.085
608.482
620.486
632.059
643.162
653.762
663.827
673.33
682.247
690.557
698.246
705.299
711.71
717.473
722.585
727.046
730.855
734.013
736.522
738.384
739.599
740.168
740.078
739.302
737.848
735.734
732.951
729.49
725.343
720.507
714.977
708.754
701.838
694.235
685.952
677.001
667.398
657.166
646.336
634.943
623.034
610.656
597.864
584.717
571.298
557.654
543.834
529.819
515.757
501.731
487.88
474.182
460.598
447.147
433.849
420.722
407.758
395.021
382.388
369.91
357.598
345.456
333.458
321.727
310.24
299.004
288.028
277.324
266.902
256.77
246.932
237.381
228.195
219.348
210.83
202.634
194.752
187.177
179.912
172.957
166.298
159.925
153.822
147.981
142.384
137.031
131.915
127.031
122.378
117.951
113.747
109.764
105.996
102.441
99.0965
95.9588
93.0264
90.2987
87.6643
91.9817
38.0015
28.2538
25.1089
24.0184
23.8363
24.1675
24.8359
25.7457
26.8437
28.0985
29.491
31.0096
32.6471
34.4
36.2665
38.247
40.3427
42.5561
44.8905
47.35
49.9397
52.6659
55.5355
58.5543
61.7287
65.0662
68.5747
72.2626
76.1383
80.2094
84.4835
88.9686
93.6736
98.6078
103.781
109.202
114.88
120.826
127.047
133.551
140.344
147.433
154.821
162.515
170.515
178.828
187.457
196.403
205.667
215.25
225.152
235.374
245.915
256.777
267.957
279.454
291.265
303.388
315.817
328.547
341.568
354.871
368.444
382.272
396.339
410.626
425.109
439.764
454.563
469.476
484.47
499.509
514.556
529.571
544.511
559.335
573.997
588.453
602.655
616.56
630.121
643.293
656.034
668.301
680.056
691.262
701.884
711.895
721.268
729.981
738.017
745.363
752.009
757.952
763.187
767.716
771.535
774.647
777.052
778.753
779.747
780.03
779.604
778.386
776.436
773.746
770.304
766.099
761.12
755.361
748.813
741.475
733.345
724.428
714.731
704.267
693.054
681.123
668.506
655.251
641.424
627.085
612.3
597.099
581.535
565.785
549.975
534.353
518.837
503.511
488.505
473.651
459.072
444.805
430.868
417.264
403.983
391.022
378.343
365.935
353.787
341.885
330.223
318.821
307.679
296.798
286.182
275.835
265.762
255.967
246.449
237.191
228.262
219.648
211.344
203.343
195.637
188.208
181.097
174.279
167.735
161.455
155.425
149.634
144.086
138.778
133.704
128.857
124.234
119.83
115.643
111.667
107.9
104.338
100.978
97.8158
94.8506
92.0785
89.4063
91.923
37.9862
28.2466
25.1076
24.027
23.8635
24.2241
24.9247
25.8753
27.0227
28.3345
29.7902
31.3772
33.0873
34.9161
36.8612
38.9225
41.1009
43.3982
45.8176
48.3629
51.0392
53.8521
56.8077
59.9139
63.1789
66.6116
70.2219
74.02
78.0161
82.221
86.6456
91.3013
96.1995
101.352
106.771
112.468
118.454
124.74
131.334
138.247
145.487
153.059
160.971
169.228
177.832
186.785
196.091
205.755
215.775
226.151
236.881
247.966
259.403
271.19
283.323
295.798
308.61
321.751
335.213
348.987
363.061
377.421
392.051
406.932
422.045
437.365
452.868
468.525
484.305
500.174
516.098
532.037
547.953
563.803
579.543
595.131
610.518
625.659
640.507
655.014
669.135
682.824
696.036
708.729
720.864
732.401
743.308
753.554
763.112
771.959
780.078
787.454
794.08
799.949
805.062
809.415
813.01
815.845
817.922
819.243
819.804
819.603
818.59
816.74
814.085
810.61
806.299
801.14
795.118
788.221
780.442
771.776
762.218
751.772
740.447
728.256
715.222
701.386
686.783
671.462
655.406
638.73
621.584
604.188
586.704
569.152
551.745
534.315
517.094
500.205
483.738
467.717
452.19
437.186
422.714
408.767
395.321
382.347
369.803
357.653
345.86
334.395
323.231
312.356
301.759
291.431
281.365
271.56
262.015
252.727
243.696
234.919
226.416
218.191
210.243
202.565
195.154
187.99
181.101
174.476
168.101
161.965
156.068
150.397
144.973
139.781
134.811
130.056
125.509
121.171
117.037
113.105
109.37
105.828
102.479
99.317
96.3416
93.5465
90.8593
90.5206
37.5503
27.9833
24.9212
23.9009
23.8031
24.2371
25.0172
26.0594
27.3103
28.7379
30.3219
32.0491
33.9112
35.9028
38.021
40.2645
42.6339
45.1311
47.7591
50.522
53.4251
56.4745
59.6771
63.0416
66.5777
70.2957
74.2072
78.3242
82.6595
87.2264
92.0385
97.1102
102.456
108.089
114.026
120.279
126.861
133.784
141.059
148.694
156.699
165.08
173.846
182.999
192.541
202.472
212.791
223.495
234.584
246.056
257.908
270.136
282.733
295.693
309.008
322.668
336.664
350.982
365.609
380.529
395.725
411.178
426.866
442.766
458.853
475.099
491.477
507.953
524.496
541.071
557.64
574.167
590.61
606.929
623.081
639.024
654.712
670.1
685.143
699.795
714.013
727.752
740.97
753.625
765.678
777.094
787.84
797.886
807.205
815.775
823.576
830.596
836.825
842.259
846.898
850.74
853.786
856.03
857.48
858.134
857.986
857.011
855.14
852.402
848.784
844.269
838.84
832.478
825.169
816.896
807.649
797.423
786.211
774.015
760.852
746.733
731.675
715.635
698.707
680.995
662.726
643.99
624.848
605.54
585.928
566.275
546.758
527.482
508.598
490.241
472.511
455.471
439.164
423.612
408.813
394.743
381.36
368.613
356.439
344.776
333.567
322.757
312.301
302.164
292.317
282.74
273.418
264.34
255.498
246.886
238.498
230.334
222.401
214.705
207.243
200.012
193.011
186.237
179.68
173.353
167.251
161.369
155.702
150.243
145.003
139.976
135.156
130.536
126.111
121.885
117.85
114.002
110.335
106.847
103.538
100.404
97.4451
94.6515
91.9742
87.8536
36.6304
27.4442
24.5734
23.702
23.7503
24.3304
25.263
26.4727
27.9103
29.5452
31.3581
33.3363
35.4715
37.7588
40.1952
42.7798
45.5129
48.3967
51.4341
54.6298
57.9891
61.5186
65.226
69.1207
73.2133
77.5155
82.0402
86.8013
91.813
97.0907
102.65
108.507
114.679
121.181
128.032
135.245
142.837
150.814
159.188
167.964
177.149
186.746
196.756
207.18
218.019
229.271
240.931
252.993
265.45
278.295
291.519
305.112
319.061
333.354
347.976
362.911
378.141
393.646
409.406
425.399
441.6
457.984
474.526
491.195
507.965
524.805
541.683
558.57
575.432
592.236
608.949
625.534
641.957
658.18
674.167
689.879
705.275
720.316
734.96
749.169
762.9
776.116
788.776
800.843
812.282
823.059
833.145
842.512
851.134
858.987
866.053
872.318