/*--------------------------------*- C++ -*----------------------------------*\
| =========                 |                                                 |
| \\      /  F ield         | OpenFOAM: The Open Source CFD Toolbox           |
|  \\    /   O peration     | Version:  v1712                                 |
|   \\  /    A nd           | Web:      www.OpenFOAM.com                      |
|    \\/     M anipulation  |                                                 |
\*---------------------------------------------------------------------------*/
FoamFile
{
    version     2.0;
    format      ascii;
    class       volScalarField;
    location    "100";
    object      k;
}
// * * * * * * * * * * * * * * * * * * * * * * * * * * * * * * * * * * * * * //

dimensions      [0 2 -2 0 0 0 0];


internalField   nonuniform List<scalar> 
12225
(
0.571465
0.98767
1.28116
1.45561
1.54171
1.57753
1.5758
1.56742
1.54737
1.52406
1.50086
1.47854
1.45855
1.43981
1.42426
1.40888
1.39828
1.38422
0.438464
0.496983
0.521822
0.535033
0.542695
0.547522
0.550013
0.552288
0.555746
0.559437
0.565237
0.570995
0.579127
0.586577
0.59617
0.604675
0.614405
0.623896
0.387563
0.417493
0.42419
0.421532
0.41498
0.405045
0.393744
0.382872
0.371887
0.362464
0.353217
0.346113
0.338966
0.334298
0.329091
0.326602
0.322968
0.322129
0.376178
0.384809
0.388127
0.387418
0.385424
0.381163
0.375661
0.369585
0.363103
0.356586
0.350105
0.34383
0.337826
0.332098
0.32679
0.321723
0.317182
0.312771
0.374177
0.37537
0.376398
0.375932
0.374797
0.37252
0.36961
0.366148
0.362483
0.358485
0.354561
0.350392
0.346533
0.342416
0.338816
0.334868
0.331642
0.327919
0.373737
0.372542
0.371997
0.371084
0.369916
0.368273
0.36634
0.364039
0.361644
0.358977
0.35638
0.353551
0.350928
0.348069
0.345541
0.342733
0.34038
0.337673
0.373769
0.371725
0.37023
0.368833
0.367464
0.365944
0.364347
0.362557
0.360738
0.358757
0.35682
0.354742
0.352781
0.350682
0.348766
0.346696
0.344879
0.342865
0.373818
0.371563
0.36962
0.367861
0.366251
0.364666
0.363124
0.361526
0.359949
0.358304
0.356702
0.355035
0.35344
0.351783
0.350229
0.348608
0.347126
0.345551
0.373832
0.371554
0.369457
0.367511
0.365723
0.364027
0.36243
0.360865
0.359359
0.357857
0.356408
0.354952
0.353551
0.352142
0.350799
0.349442
0.348168
0.346865
0.373832
0.37156
0.369425
0.36741
0.36553
0.363754
0.362089
0.360496
0.358985
0.357521
0.356122
0.354756
0.353447
0.352162
0.350932
0.34972
0.348567
0.347423
0.37383
0.371561
0.369417
0.367385
0.365469
0.363654
0.361944
0.36032
0.358783
0.357314
0.355918
0.354577
0.353297
0.352063
0.350883
0.349741
0.348649
0.347589
0.373828
0.371559
0.369412
0.367376
0.365449
0.363621
0.361891
0.36025
0.358694
0.357214
0.355808
0.354466
0.353189
0.351966
0.350799
0.349681
0.34861
0.347583
0.373827
0.371557
0.369407
0.367369
0.365437
0.363604
0.361866
0.360216
0.358649
0.35716
0.355744
0.354396
0.353114
0.351891
0.350724
0.349611
0.348547
0.347531
0.373827
0.371555
0.369403
0.367363
0.365428
0.363592
0.36185
0.360194
0.358622
0.357126
0.355704
0.35435
0.353062
0.351834
0.350664
0.349548
0.348482
0.347467
0.373826
0.371553
0.369399
0.367357
0.36542
0.363582
0.361836
0.360178
0.358602
0.357102
0.355676
0.354318
0.353025
0.351793
0.350619
0.349499
0.34843
0.347411
0.373826
0.371552
0.369396
0.367352
0.365413
0.363573
0.361825
0.360164
0.358585
0.357083
0.355654
0.354293
0.352997
0.351762
0.350584
0.349461
0.348389
0.347367
0.373825
0.371551
0.369394
0.367349
0.365408
0.363566
0.361816
0.360153
0.358572
0.357068
0.355636
0.354273
0.352974
0.351736
0.350556
0.349431
0.348357
0.347332
0.373825
0.371551
0.369393
0.367347
0.365405
0.363561
0.36181
0.360145
0.358563
0.357056
0.355623
0.354258
0.352957
0.351718
0.350536
0.349409
0.348333
0.347307
0.373825
0.371551
0.369393
0.367346
0.365404
0.36356
0.361808
0.360142
0.358559
0.357051
0.355617
0.354251
0.352949
0.351708
0.350526
0.349397
0.348321
0.347294
0.373826
0.371551
0.369394
0.367348
0.365406
0.363562
0.36181
0.360145
0.358562
0.357054
0.35562
0.354254
0.352953
0.351712
0.35053
0.349401
0.348326
0.347298
0.373826
0.371552
0.369396
0.367351
0.365409
0.363567
0.361816
0.360152
0.358569
0.357064
0.35563
0.354266
0.352966
0.351727
0.350546
0.34942
0.348345
0.347319
0.373826
0.371553
0.369398
0.367355
0.365415
0.363575
0.361827
0.360167
0.35859
0.35709
0.355662
0.354303
0.353009
0.351775
0.350599
0.349475
0.348404
0.347379
0.373826
0.371555
0.369401
0.367363
0.365431
0.363605
0.361874
0.360236
0.35868
0.357201
0.355792
0.354448
0.353164
0.351935
0.350758
0.34963
0.348548
0.347508
0.373827
0.371555
0.369413
0.367418
0.365544
0.363793
0.362137
0.360571
0.359069
0.35763
0.356238
0.354893
0.353585
0.352319
0.351086
0.34989
0.348724
0.347596
0.373819
0.371564
0.369582
0.367845
0.366223
0.364711
0.363218
0.361752
0.360265
0.358785
0.357286
0.355797
0.354303
0.35283
0.351357
0.34992
0.34849
0.347105
0.373767
0.371946
0.370917
0.369978
0.368912
0.367766
0.366326
0.364735
0.362932
0.361059
0.359057
0.35705
0.354967
0.35292
0.35084
0.34882
0.346786
0.344833
0.374093
0.3752
0.37726
0.377562
0.377091
0.375808
0.373489
0.370864
0.367803
0.364685
0.361328
0.358024
0.354601
0.351286
0.347919
0.344694
0.341468
0.338407
0.377677
0.394075
0.402941
0.402351
0.400305
0.396043
0.390665
0.385163
0.379135
0.373299
0.367224
0.361471
0.355723
0.350301
0.345132
0.340195
0.335731
0.331325
0.405778
0.438979
0.45119
0.455819
0.459119
0.46228
0.464993
0.467261
0.469263
0.470892
0.472549
0.473993
0.475622
0.477157
0.479302
0.480936
0.483775
0.485499
0.479012
0.684925
0.865147
0.9908
1.09436
1.1758
1.23934
1.28333
1.31495
1.3319
1.34305
1.34327
1.34113
1.33596
1.32747
1.31731
1.30635
1.29486
0.00955628
0.019621
0.0293451
0.0375668
0.0442487
0.0496285
0.0539278
0.0573877
0.0606499
0.0635776
0.0663533
0.069202
0.07239
0.0761319
0.0807137
0.0863127
0.0928669
0.100203
0.108293
0.117115
0.126738
0.137203
0.148658
0.161067
0.174397
0.188597
0.203677
0.219514
0.23606
0.253189
0.270838
0.288866
0.307222
0.325777
0.344489
0.363247
0.382028
0.400744
0.419393
0.437905
0.456295
0.474505
0.492562
0.510422
0.528116
0.545611
0.562941
0.580085
0.597079
0.613901
0.630581
0.647099
0.663483
0.679712
0.695811
0.71176
0.727577
0.743247
0.758781
0.774165
0.789404
0.804491
0.81942
0.83419
0.848786
0.863212
0.877441
0.891482
0.905298
0.918907
0.932274
0.945431
0.958335
0.971031
0.983468
0.995701
1.00767
1.01945
1.03098
1.04233
1.05344
1.06442
1.07519
1.08588
1.09644
1.10698
1.1174
1.12778
1.13806
1.14846
1.15875
1.16908
1.17931
1.18942
1.19929
1.20866
1.217
1.22318
1.22286
1.23176
1.25264
1.25745
1.27373
1.28029
1.28846
1.29576
1.30233
1.30671
1.31185
1.31311
1.32954
1.32539
1.32648
1.33057
1.3402
1.33706
1.33942
1.34774
1.34574
1.34372
1.34698
1.34207
1.33884
1.33333
1.32658
1.31865
1.30947
1.29909
1.28746
1.27449
1.26016
1.24452
1.22756
1.20935
1.18992
1.16912
1.14708
1.12394
1.09979
1.07476
1.04898
1.02251
0.995391
0.968329
0.941157
0.913182
0.890466
0.872328
0.85472
0.837114
0.819514
0.802011
0.784645
0.767543
0.750549
0.733609
0.717058
0.701146
0.685511
0.670109
0.655079
0.640527
0.626544
0.613106
0.600177
0.587764
0.575888
0.564528
0.55367
0.543302
0.533407
0.523939
0.514901
0.506119
0.497846
0.489143
0.481753
0.470939
0.46553
0.436753
0.0275805
0.0540012
0.0754212
0.0916878
0.105131
0.116708
0.126893
0.135988
0.144272
0.152305
0.160582
0.169528
0.179492
0.190704
0.20328
0.217199
0.232418
0.24892
0.266678
0.285671
0.305916
0.327434
0.350253
0.374366
0.399757
0.426386
0.45421
0.483161
0.51316
0.54407
0.575775
0.60815
0.641089
0.674474
0.708206
0.742177
0.776303
0.810498
0.844702
0.878853
0.912911
0.946833
0.980598
1.01418
1.04756
1.08073
1.1137
1.14645
1.17899
1.21133
1.24346
1.27539
1.30712
1.33865
1.36998
1.4011
1.43202
1.46271
1.49318
1.52341
1.55339
1.58311
1.61254
1.64168
1.6705
1.69899
1.72712
1.75489
1.78228
1.8092
1.83563
1.86155
1.88693
1.91176
1.93602
1.9597
1.98278
2.00527
2.02716
2.04847
2.06919
2.08935
2.10898
2.12813
2.14681
2.16509
2.18301
2.20058
2.21779
2.23479
2.25159
2.26822
2.28466
2.30092
2.31701
2.33288
2.34847
2.36376
2.37888
2.39519
2.41157
2.42633
2.4424
2.45693
2.47139
2.48504
2.49796
2.51023
2.52274
2.53446
2.54724
2.55742
2.56811
2.57783
2.5874
2.59413
2.59947
2.61204
2.61508
2.62371
2.62434
2.6259
2.62689
2.62719
2.62355
2.61797
2.6102
2.60019
2.58787
2.57309
2.55552
2.53512
2.51187
2.48578
2.45685
2.42515
2.39071
2.35376
2.31448
2.27306
2.2297
2.18462
2.13799
2.09007
2.04153
1.9922
1.94237
1.89266
1.84291
1.79336
1.74424
1.6958
1.64822
1.6016
1.5555
1.51004
1.46576
1.42297
1.38168
1.34158
1.30273
1.26532
1.22948
1.1951
1.16209
1.13048
1.1003
1.07147
1.04396
1.01775
0.992771
0.968967
0.946277
0.924596
0.90395
0.883878
0.865459
0.845075
0.83116
0.789804
0.0446057
0.0857236
0.11381
0.134698
0.152158
0.167594
0.181734
0.195076
0.208066
0.221143
0.234736
0.249235
0.26497
0.282172
0.300974
0.321419
0.34349
0.367142
0.392317
0.418965
0.447057
0.476569
0.507487
0.539786
0.573437
0.608392
0.644595
0.681964
0.720383
0.759723
0.799875
0.840725
0.882162
0.924076
0.966365
1.00893
1.05167
1.09452
1.13741
1.18028
1.22309
1.26579
1.30837
1.35079
1.39305
1.43513
1.47703
1.51873
1.56025
1.60158
1.64271
1.68365
1.7244
1.76496
1.80531
1.84547
1.88541
1.92513
1.96463
2.00387
2.04286
2.08156
2.11996
2.15803
2.19574
2.23306
2.26997
2.30643
2.3424
2.37784
2.41271
2.44698
2.48062
2.51358
2.54585
2.57738
2.60816
2.63816
2.66736
2.69575
2.72333
2.7501
2.77608
2.80128
2.82572
2.84942
2.8724
2.89465
2.91621
2.93714
2.95747
2.97722
2.99638
3.01498
3.03302
3.05052
3.06747
3.08392
3.09997
3.11578
3.13114
3.14604
3.16081
3.1749
3.18866
3.2019
3.21475
3.22729
3.23957
3.25126
3.26278
3.27333
3.28346
3.29284
3.3018
3.30942
3.3166
3.3244
3.32929
3.3331
3.33387
3.33338
3.33198
3.32874
3.3227
3.31413
3.30286
3.28871
3.27153
3.25113
3.22736
3.20012
3.16938
3.13511
3.09736
3.0562
3.01174
2.96417
2.91369
2.86053
2.80493
2.74712
2.68736
2.62596
2.56361
2.50085
2.4379
2.37497
2.31214
2.24964
2.18775
2.12674
2.0668
2.00809
1.95058
1.8944
1.83972
1.78675
1.73554
1.68562
1.63708
1.59028
1.54535
1.50217
1.46058
1.42069
1.38255
1.34606
1.31118
1.2779
1.24617
1.2159
1.18705
1.15952
1.13332
1.10819
1.08477
1.061
1.044
1.00809
0.0598983
0.117288
0.15157
0.176644
0.197558
0.216171
0.233432
0.24997
0.266298
0.282876
0.300131
0.318448
0.338146
0.359456
0.382521
0.407394
0.434064
0.462481
0.492582
0.524307
0.557606
0.592441
0.628781
0.666587
0.705818
0.746412
0.788289
0.831347
0.875481
0.920595
0.966584
1.01334
1.06074
1.1087
1.1571
1.20585
1.25486
1.30405
1.35335
1.40272
1.45211
1.50147
1.55077
1.59999
1.6491
1.6981
1.74697
1.79569
1.84427
1.8927
1.94098
1.9891
2.03706
2.08485
2.13248
2.17993
2.22719
2.27426
2.32113
2.36776
2.41415
2.46027
2.5061
2.55159
2.59673
2.64147
2.68577
2.7296
2.7729
2.81562
2.85773
2.89917
2.93989
2.97985
3.01899
3.05727
3.09465
3.13108
3.16654
3.20098
3.2344
3.26676
3.29808
3.32833
3.35752
3.38565
3.41273
3.43874
3.46371
3.48769
3.51069
3.53273
3.55383
3.574
3.59327
3.61166
3.62921
3.64596
3.66199
3.67736
3.69209
3.70623
3.71979
3.73271
3.74507
3.75686
3.76811
3.77888
3.78913
3.79879
3.80792
3.81626
3.82395
3.83101
3.83734
3.84248
3.84684
3.85077
3.85234
3.8522
3.85053
3.84733
3.84235
3.8352
3.82544
3.81294
3.79749
3.77889
3.75693
3.73144
3.70224
3.66924
3.63237
3.59161
3.54699
3.49859
3.44654
3.39102
3.33224
3.27043
3.20585
3.13883
3.06979
2.99918
2.92759
2.85554
2.78333
2.71118
2.63928
2.56788
2.49725
2.42766
2.35934
2.29244
2.22707
2.16334
2.10139
2.04131
1.98319
1.9269
1.87243
1.8199
1.7694
1.72075
1.67368
1.62847
1.5852
1.5437
1.50397
1.46603
1.42978
1.39519
1.36221
1.33076
1.30085
1.27235
1.24564
1.21975
1.19939
1.16755
0.0735162
0.147177
0.188155
0.217645
0.242068
0.263751
0.283871
0.303184
0.322268
0.341619
0.361677
0.382827
0.405392
0.42961
0.455638
0.483551
0.51336
0.545032
0.578515
0.61375
0.650683
0.689267
0.729456
0.771201
0.814447
0.859126
0.905156
0.95245
1.00091
1.05045
1.10094
1.1523
1.2044
1.25715
1.31044
1.36419
1.41832
1.47274
1.5274
1.58223
1.63719
1.69224
1.74732
1.80242
1.85751
1.91256
1.96756
2.02249
2.07734
2.13211
2.18678
2.24135
2.29582
2.35018
2.40441
2.45853
2.51251
2.56634
2.62001
2.67349
2.72677
2.77982
2.83261
2.88509
2.93724
2.98901
3.04035
3.09121
3.14153
3.19126
3.24033
3.28869
3.33626
3.38298
3.42878
3.47361
3.51739
3.56007
3.60158
3.64189
3.68095
3.71872
3.75517
3.79027
3.824
3.85635
3.8873
3.91684
3.94499
3.97176
3.99718
4.02127
4.04403
4.06551
4.08572
4.10471
4.12253
4.13922
4.15485
4.16949
4.18318
4.19598
4.20789
4.21893
4.22914
4.23857
4.24721
4.2551
4.26225
4.26871
4.27443
4.27922
4.28313
4.28643
4.28892
4.28987
4.28958
4.28861
4.28599
4.28191
4.27621
4.26877
4.25937
4.24773
4.23353
4.21655
4.19655
4.17331
4.14661
4.11623
4.08201
4.04383
4.00158
3.95525
3.90484
3.85043
3.79213
3.73011
3.66458
3.59581
3.52414
3.44999
3.37383
3.29613
3.21743
3.13821
3.05883
2.97955
2.90063
2.82232
2.74492
2.66869
2.59387
2.52064
2.44913
2.37949
2.31182
2.24621
2.18271
2.1213
2.06196
2.00475
1.94969
1.89673
1.84574
1.79678
1.74986
1.70473
1.66142
1.62002
1.5804
1.54254
1.50642
1.47198
1.43923
1.40814
1.37895
1.3513
1.32812
1.29764
0.0853266
0.175109
0.222874
0.256873
0.284844
0.309561
0.332409
0.354259
0.375754
0.397422
0.419722
0.443047
0.467729
0.494026
0.522117
0.55211
0.58405
0.617932
0.653727
0.691389
0.730868
0.772111
0.815066
0.859676
0.90588
0.953605
1.00277
1.0533
1.10509
1.15805
1.21209
1.26709
1.32296
1.37961
1.43694
1.49487
1.55331
1.6122
1.67146
1.73105
1.79089
1.85094
1.91116
1.97151
2.03196
2.09249
2.15306
2.21365
2.27426
2.33488
2.39548
2.45606
2.51662
2.57714
2.63762
2.69805
2.75842
2.81872
2.87891
2.939
2.99895
3.05873
3.11831
3.17764
3.23669
3.29539
3.3537
3.41156
3.46889
3.52562
3.58168
3.63699
3.69147
3.74504
3.7976
3.84907
3.89937
3.94842
3.99614
4.04245
4.08728
4.13058
4.1723
4.21237
4.25077
4.28744
4.32237
4.35554
4.38693
4.41657
4.44446
4.47061
4.49505
4.51781
4.53892
4.55842
4.57637
4.59282
4.60783
4.62148
4.63382
4.64489
4.65472
4.66335
4.67084
4.67726
4.68257
4.68678
4.68999
4.69238
4.69386
4.69403
4.6929
4.69107
4.68821
4.68405
4.67876
4.67234
4.66449
4.65517
4.64424
4.63156
4.6169
4.60004
4.58071
4.55868
4.5337
4.50552
4.47392
4.43866
4.39958
4.3565
4.30932
4.25798
4.20248
4.14285
4.07921
4.01171
3.9406
3.8662
3.7889
3.70913
3.62736
3.54408
3.45978
3.37492
3.28988
3.20496
3.12046
3.03668
2.95388
2.87236
2.79234
2.71404
2.6376
2.56317
2.49086
2.42075
2.35289
2.28728
2.22393
2.16285
2.10404
2.04746
1.99305
1.94083
1.89077
1.84276
1.79676
1.75277
1.71057
1.67017
1.6316
1.59479
1.55979
1.52662
1.49545
1.46624
1.44077
1.41042
0.0955571
0.200643
0.254943
0.293364
0.324825
0.352504
0.377968
0.402189
0.425864
0.449551
0.473727
0.498798
0.525109
0.552938
0.582494
0.613918
0.647292
0.682648
0.719984
0.759274
0.800478
0.843548
0.888429
0.935062
0.983382
1.03332
1.08479
1.13773
1.19203
1.24761
1.30439
1.36226
1.42114
1.48094
1.54157
1.60295
1.66501
1.72767
1.79086
1.85453
1.9186
1.98304
2.0478
2.11282
2.17807
2.24352
2.30915
2.37492
2.44083
2.50684
2.57295
2.63915
2.70543
2.77177
2.83818
2.90463
2.97113
3.03764
3.10416
3.17067
3.23713
3.30351
3.36978
3.4359
3.5018
3.56743
3.63273
3.69762
3.76203
3.82587
3.88904
3.95146
4.01303
4.07363
4.13316
4.19152
4.24859
4.30427
4.35845
4.41104
4.46195
4.51108
4.55835
4.60369
4.64704
4.68833
4.72752
4.76457
4.79947
4.8322
4.86277
4.89119
4.91746
4.94163
4.96373
4.98379
5.00188
5.01805
5.03236
5.04489
5.05568
5.06479
5.07227
5.07814
5.0825
5.08552
5.087
5.08695
5.08544
5.08287
5.07904
5.0738
5.06729
5.05962
5.05073
5.04054
5.02909
5.01636
5.00224
4.98664
4.96947
4.95057
4.92979
4.90692
4.88174
4.85402
4.82352
4.78999
4.7532
4.71292
4.66893
4.62107
4.5692
4.51322
4.4531
4.38887
4.32062
4.24855
4.17291
4.09403
4.01231
3.92817
3.84206
3.75445
3.6658
3.57655
3.48711
3.3978
3.30895
3.22085
3.13382
3.04811
2.96397
2.88163
2.80125
2.72297
2.64691
2.57315
2.50174
2.4327
2.36604
2.30176
2.23984
2.18027
2.12299
2.06799
2.01525
1.96471
1.91633
1.87005
1.82576
1.78342
1.74296
1.70428
1.66749
1.63262
1.59984
1.56923
1.54185
1.51115
0.10553
0.223556
0.283785
0.326327
0.361084
0.391574
0.419518
0.445964
0.471653
0.497167
0.522992
0.549548
0.577191
0.606216
0.636858
0.66929
0.703629
0.739941
0.778254
0.818567
0.860855
0.90508
0.951194
0.99914
1.04886
1.10028
1.15332
1.20793
1.264
1.32147
1.38026
1.44027
1.50143
1.56365
1.62686
1.69099
1.75596
1.82169
1.88813
1.9552
2.02286
2.09104
2.15969
2.22877
2.29824
2.36805
2.43819
2.50861
2.5793
2.65024
2.72141
2.7928
2.8644
2.9362
3.00818
3.08034
3.15267
3.22515
3.29776
3.37048
3.44328
3.51613
3.58899
3.6618
3.73451
3.80706
3.87936
3.95134
4.02291
4.09396
4.1644
4.2341
4.30294
4.37081
4.43756
4.50307
4.56721
4.62984
4.69083
4.75005
4.80738
4.86271
4.91592
4.96691
5.01559
5.06188
5.1057
5.14701
5.18576
5.22193
5.2555
5.28648
5.31487
5.34069
5.36399
5.38479
5.40315
5.41913
5.43279
5.4442
5.45341
5.46048
5.46552
5.46845
5.46936
5.46839
5.46561
5.46099
5.45464
5.44669
5.43712
5.42593
5.4132
5.39901
5.38336
5.36627
5.34776
5.32785
5.3065
5.28365
5.25926
5.23322
5.2054
5.17566
5.14382
5.10967
5.073
5.03358
4.99117
4.94555
4.89648
4.84378
4.78729
4.72688
4.66252
4.59421
4.52208
4.44628
4.36707
4.28476
4.19971
4.11232
4.02301
3.93221
3.84037
3.7479
3.65521
3.56266
3.47058
3.37929
3.28907
3.20021
3.11296
3.02753
2.94411
2.86285
2.78387
2.70723
2.63302
2.56124
2.49192
2.42506
2.36064
2.29863
2.23899
2.1817
2.12673
2.07406
2.02363
1.97539
1.92926
1.88517
1.84309
1.80295
1.76477
1.72854
1.69443
1.66257
1.6336
1.6023
0.116895
0.243841
0.30909
0.355234
0.392945
0.426003
0.45624
0.484759
0.512325
0.539531
0.56687
0.594762
0.62357
0.653601
0.685107
0.718284
0.753278
0.790186
0.829064
0.869936
0.912798
0.957628
1.00439
1.05303
1.10351
1.15575
1.2097
1.26529
1.32244
1.3811
1.44118
1.50261
1.56533
1.62926
1.69433
1.76048
1.82763
1.89572
1.96468
2.03446
2.10499
2.17623
2.24811
2.3206
2.39364
2.4672
2.54124
2.61574
2.69067
2.766
2.84172
2.91782
2.99429
3.07111
3.14827
3.22577
3.30359
3.38172
3.46014
3.53883
3.61776
3.69689
3.77618
3.85557
3.935
4.01441
4.0937
4.17278
4.25156
4.32991
4.40771
4.48484
4.56115
4.63649
4.71071
4.78365
4.85515
4.92505
4.99318
5.0594
5.12353
5.18545
5.245
5.30205
5.35649
5.40819
5.45708
5.50305
5.54607
5.58606
5.62302
5.65693
5.68777
5.71557
5.74034
5.76214
5.781
5.79699
5.81016
5.82058
5.82832
5.83338
5.83578
5.83571
5.83321
5.82835
5.82119
5.81179
5.80022
5.78659
5.77094
5.75332
5.73382
5.71252
5.68948
5.66477
5.63843
5.61052
5.58106
5.55005
5.5175
5.48336
5.44758
5.41005
5.37066
5.32925
5.28564
5.23965
5.19105
5.13962
5.08514
5.02741
4.96626
4.90157
4.83328
4.76141
4.68603
4.60728
4.52538
4.44059
4.35322
4.26363
4.17221
4.07934
3.98542
3.89087
3.79606
3.70139
3.60719
3.51378
3.42143
3.33043
3.24103
3.15346
3.06791
2.98453
2.90344
2.82471
2.74842
2.6746
2.60327
2.53443
2.46806
2.40415
2.34266
2.28356
2.22682
2.17241
2.12031
2.07044
2.02275
1.97719
1.9337
1.89227
1.85288
1.81558
1.7804
1.74747
1.71714
1.68517
0.127047
0.260888
0.330371
0.379599
0.419885
0.455229
0.487543
0.517967
0.547277
0.576067
0.604825
0.633966
0.663848
0.694781
0.727025
0.76079
0.796241
0.833499
0.872645
0.913724
0.956757
1.00174
1.04865
1.09746
1.14813
1.2006
1.25483
1.31076
1.36834
1.4275
1.48819
1.55034
1.61391
1.67882
1.74502
1.81245
1.88105
1.95075
2.02151
2.09326
2.16595
2.23952
2.31393
2.38912
2.46506
2.5417
2.61901
2.69696
2.77552
2.85467
2.93439
3.01467
3.09549
3.17685
3.25874
3.34115
3.42408
3.50749
3.59139
3.67574
3.76051
3.84568
3.93118
4.01698
4.10299
4.18914
4.27534
4.36149
4.44746
4.53314
4.61839
4.70304
4.78694
4.86992
4.9518
5.0324
5.11152
5.18897
5.26456
5.3381
5.4094
5.47828
5.54456
5.60807
5.66867
5.72622
5.78058
5.83164
5.87933
5.92357
5.96431
6.00153
6.03519
6.06531
6.09191
6.11501
6.13465
6.1509
6.16381
6.17346
6.17983
6.18295
6.18304
6.18012
6.17425
6.16549
6.15394
6.13965
6.12272
6.10323
6.08126
6.05689
6.03023
6.00138
5.97044
5.9375
5.90266
5.86603
5.82766
5.78765
5.74605
5.70289
5.65819
5.61192
5.56404
5.51445
5.46306
5.40971
5.35422
5.29643
5.2361
5.17306
5.10716
5.03828
4.96633
4.89131
4.81325
4.73223
4.64843
4.56203
4.47331
4.38255
4.29007
4.19621
4.10134
4.00582
3.91003
3.81437
3.71917
3.62473
3.53132
3.43921
3.34866
3.25991
3.17315
3.08852
3.00615
2.92613
2.84851
2.77335
2.70067
2.63047
2.56275
2.49749
2.43466
2.37423
2.31617
2.26046
2.20705
2.15592
2.10699
2.06023
2.01559
1.97307
1.93266
1.89439
1.85832
1.8245
1.79302
1.76042
0.135565
0.27443
0.347341
0.399123
0.441589
0.478909
0.513059
0.545195
0.5761
0.60636
0.636448
0.666767
0.697663
0.729435
0.762343
0.7966
0.832382
0.869823
0.909023
0.950048
0.992938
1.03771
1.08436
1.13288
1.18325
1.23542
1.28937
1.34506
1.40244
1.46148
1.52212
1.58433
1.64805
1.71325
1.77986
1.84785
1.91716
1.98775
2.05956
2.13255
2.20665
2.28183
2.35804
2.43524
2.51337
2.59241
2.67233
2.75308
2.83464
2.917
3.00013
3.08402
3.16866
3.25404
3.34016
3.42701
3.51458
3.60286
3.69184
3.78149
3.87178
3.96268
4.05413
4.14608
4.23846
4.33118
4.42415
4.51724
4.61035
4.70331
4.79598
4.88818
4.97974
5.07045
5.16012
5.24853
5.33546
5.42068
5.50397
5.58511
5.66386
5.74001
5.81335
5.88368
5.9508
6.01455
6.07476
6.1313
6.18404
6.2329
6.2778
6.31869
6.35554
6.38833
6.41707
6.44179
6.46251
6.4793
6.49221
6.5013
6.5065
6.50807
6.50602
6.5004
6.49128
6.47873
6.46285
6.44369
6.42136
6.39593
6.3675
6.33619
6.30211
6.26537
6.22612
6.18448
6.1406
6.09461
6.04665
5.99687
5.94539
5.89233
5.8378
5.78184
5.72451
5.66583
5.60573
5.54417
5.48104
5.41627
5.34962
5.28096
5.21015
5.13708
5.06165
4.98381
4.90353
4.82086
4.73588
4.64871
4.55955
4.4686
4.37611
4.28237
4.18766
4.09231
3.99666
3.90117
3.80611
3.71177
3.6184
3.52625
3.43557
3.34662
3.2596
3.17465
3.09187
3.01137
2.93321
2.85744
2.78411
2.71321
2.64475
2.5787
2.51506
2.45381
2.3949
2.33832
2.28403
2.23199
2.18216
2.13451
2.08901
2.04564
2.0044
1.96534
1.92849
1.8939
1.86148
1.82833
0.142337
0.284417
0.359931
0.413721
0.457947
0.496903
0.53261
0.566236
0.598557
0.630145
0.661455
0.692868
0.72471
0.757265
0.790779
0.825461
0.861487
0.898996
0.938099
0.978879
1.02139
1.06567
1.11174
1.1596
1.20926
1.26069
1.31387
1.3688
1.42544
1.48378
1.54379
1.60544
1.66869
1.73351
1.79986
1.86772
1.93706
2.00783
2.07998
2.15349
2.22831
2.30439
2.3817
2.4602
2.53985
2.62062
2.70247
2.78538
2.86932
2.95427
3.04022
3.12714
3.21503
3.30388
3.3937
3.48449
3.57624
3.66893
3.76256
3.8571
3.95251
4.04878
4.14584
4.24364
4.34211
4.44115
4.54065
4.6405
4.74056
4.84068
4.94067
5.04036
5.13953
5.23797
5.33545
5.43172
5.52654
5.61965
5.71078
5.79968
5.88608
5.96973
6.05037
6.12776
6.20168
6.27192
6.33828
6.40059
6.4587
6.51249
6.56186
6.60673
6.64706
6.68281
6.71399
6.7406
6.76268
6.78026
6.7934
6.80215
6.80655
6.80675
6.80275
6.79461
6.78241
6.76621
6.74609
6.72213
6.69442
6.66304
6.62811
6.58974
6.54806
6.50322
6.45537
6.40466
6.35129
6.29543
6.23729
6.17707
6.11498
6.05122
5.98599
5.91945
5.85175
5.78305
5.71336
5.64274
5.57113
5.4983
5.42436
5.34934
5.27312
5.19562
5.11671
5.03628
4.95426
4.87059
4.78526
4.6983
4.60978
4.51983
4.4286
4.33628
4.24309
4.14928
4.05507
3.96094
3.8672
3.77412
3.68192
3.59082
3.50105
3.41295
3.32667
3.24234
3.16007
3.07995
3.00206
2.92647
2.85321
2.7823
2.71374
2.64751
2.58363
2.52207
2.46281
2.40581
2.35106
2.29852
2.24817
2.19996
2.15388
2.10993
2.06811
2.02845
1.99098
1.95574
1.92254
1.88896
0.147321
0.290902
0.368204
0.42345
0.468998
0.509227
0.546184
0.581039
0.614559
0.647296
0.679682
0.712071
0.744767
0.77803
0.812086
0.847131
0.883331
0.920826
0.959729
1.00013
1.0421
1.08569
1.13094
1.17787
1.2265
1.27684
1.32888
1.38263
1.43808
1.49525
1.55413
1.61472
1.67694
1.7408
1.8063
1.87342
1.94215
2.01246
2.08432
2.15771
2.23258
2.30892
2.38669
2.46586
2.54639
2.62825
2.71143
2.79589
2.88161
2.96857
3.05676
3.14615
3.23674
3.32849
3.42148
3.5157
3.61114
3.70777
3.80559
3.90456
4.00467
4.10589
4.20817
4.31144
4.41562
4.52064
4.62636
4.73268
4.83943
4.94644
5.05354
5.16051
5.26713
5.37316
5.47834
5.5824
5.68507
5.78603
5.88502
5.98171
6.07581
6.16703
6.25507
6.33966
6.42052
6.49741
6.5701
6.63836
6.70204
6.76096
6.815
6.86407
6.90809
6.94702
6.98083
7.00954
7.03316
7.05174
7.06531
7.07394
7.07769
7.07671
7.07096
7.06048
7.04534
7.02561
7.00136
6.97267
6.93962
6.90231
6.86084
6.81534
6.76595
6.71283
6.65614
6.59609
6.53287
6.46672
6.39789
6.32666
6.25331
6.17813
6.10146
6.02353
5.94457
5.86445
5.78362
5.70243
5.62114
5.5401
5.45932
5.37842
5.29729
5.21584
5.13391
5.05136
4.96805
4.88385
4.79865
4.71241
4.6251
4.53674
4.4474
4.35719
4.26625
4.17478
4.08305
3.99166
3.90067
3.81023
3.72056
3.63182
3.54422
3.45806
3.37356
3.29085
3.21004
3.1312
3.05442
2.97981
2.90739
2.83719
2.7692
2.70344
2.6399
2.5786
2.5195
2.46258
2.40782
2.3552
2.30469
2.25629
2.20997
2.16573
2.12358
2.08355
2.04564
2.0099
1.9761
1.94223
0.150566
0.294064
0.372351
0.42847
0.474885
0.516005
0.553881
0.589676
0.624141
0.657808
0.691084
0.724297
0.757721
0.791589
0.826105
0.861444
0.897759
0.935178
0.973813
1.01376
1.05508
1.09786
1.14214
1.18797
1.23539
1.28444
1.33508
1.38734
1.44126
1.49688
1.55424
1.61341
1.67425
1.73679
1.80104
1.867
1.93467
2.00405
2.07512
2.14786
2.22226
2.29829
2.37595
2.45519
2.53601
2.61838
2.70228
2.78769
2.87459
2.96297
3.05282
3.14413
3.23687
3.33105
3.42676
3.52394
3.62259
3.72269
3.82421
3.92711
4.03144
4.13714
4.24417
4.35245
4.46191
4.57246
4.68397
4.79632
4.90936
5.02289
5.13672
5.25062
5.36436
5.47767
5.59027
5.70186
5.81213
5.92075
6.0274
6.13173
6.23341
6.33211
6.42748
6.51921
6.60698
6.69051
6.76953
6.84379
6.91306
6.97717
7.03595
7.08929
7.13707
7.17925
7.21579
7.24669
7.27195
7.2916
7.30569
7.31429
7.31745
7.31546
7.30807
7.29534
7.27736
7.25417
7.22584
7.19244
7.15406
7.11078
7.06272
7.01
6.95277
6.8912
6.82549
6.75583
6.68246
6.60565
6.52572
6.44302
6.35788
6.27061
6.18117
6.09034
5.99873
5.90721
5.81607
5.72528
5.63521
5.54634
5.45788
5.37027
5.28356
5.1977
5.11254
5.02789
4.94355
4.8593
4.77494
4.69028
4.60519
4.51956
4.43334
4.34653
4.25919
4.17139
4.08317
3.99521
3.90758
3.82044
3.73397
3.6483
3.56355
3.4805
3.39898
3.31904
3.24078
3.16428
3.08954
3.01676
2.94599
2.87725
2.81055
2.74589
2.68334
2.62287
2.56449
2.50815
2.45385
2.40159
2.35136
2.30314
2.25692
2.2127
2.1705
2.13035
2.09223
2.05617
2.02195
1.98799
0.151976
0.293793
0.372307
0.428827
0.475736
0.517401
0.555872
0.592306
0.627442
0.661794
0.695747
0.729601
0.763602
0.797955
0.832838
0.868401
0.904777
0.942082
0.980418
1.01987
1.06052
1.10245
1.1457
1.19035
1.23647
1.28415
1.33335
1.38411
1.43647
1.49046
1.5461
1.60338
1.66235
1.72308
1.7856
1.84992
1.91608
1.98408
2.05392
2.12561
2.19913
2.27448
2.35166
2.43064
2.51141
2.59396
2.67827
2.76433
2.85212
2.94162
3.03283
3.12574
3.22033
3.31658
3.4145
3.51413
3.61544
3.71846
3.82315
3.9295
4.03755
4.14723
4.25848
4.3712
4.48536
4.60086
4.71759
4.8354
4.95413
5.07359
5.19358
5.31386
5.43417
5.55422
5.67372
5.79234
5.90974
6.02557
6.13946
6.25104
6.35993
6.46576
6.56815
6.66673
6.76116
6.8511
6.93624
7.0163
7.09101
7.16016
7.22355
7.28103
7.33249
7.37782
7.417
7.45
7.47682
7.49748
7.51204
7.52056
7.52301
7.52005
7.51101
7.49602
7.47516
7.44846
7.416
7.37782
7.33402
7.28467
7.22989
7.16981
7.10457
7.03439
6.95944
6.87994
6.79618
6.70839
6.61661
6.52142
6.42341
6.32315
6.22182
6.11939
6.01652
5.91409
5.81155
5.70984
5.60952
5.511
5.41436
5.31979
5.22741
5.13717
5.04895
4.96253
4.87762
4.79393
4.71113
4.62891
4.54698
4.4651
4.38309
4.30083
4.21827
4.13544
4.0524
3.96943
3.88668
3.8043
3.72244
3.64122
3.56072
3.48145
3.40349
3.32692
3.25183
3.17828
3.10634
3.03632
2.96811
2.9017
2.8371
2.77429
2.71336
2.65435
2.59724
2.54202
2.48869
2.43726
2.38772
2.34008
2.29433
2.25047
2.20853
2.16851
2.13043
2.09426
2.05987
2.02602
0.151984
0.291199
0.369261
0.425651
0.472509
0.514224
0.552839
0.589502
0.624935
0.659633
0.693959
0.728191
0.762547
0.79721
0.832331
0.868037
0.904443
0.941647
0.979737
1.01879
1.05889
1.1001
1.14249
1.18611
1.23102
1.27723
1.32477
1.37374
1.42423
1.47629
1.53001
1.58544
1.64261
1.70158
1.76238
1.82506
1.88966
1.9562
2.02471
2.09521
2.1677
2.2422
2.3187
2.3972
2.4777
2.56019
2.64465
2.73108
2.81946
2.90979
3.00204
3.09622
3.19231
3.2903
3.39021
3.49205
3.59583
3.70151
3.80909
3.91853
4.0298
4.14289
4.25776
4.37435
4.49261
4.61242
4.73368
4.85625
4.97998
5.10466
5.23008
5.356
5.48215
5.60823
5.73393
5.85889
5.98277
6.10517
6.22569
6.34394
6.45949
6.57192
6.68083
6.7858
6.88645
6.98239
7.07326
7.15875
7.23856
7.31242
7.38011
7.44144
7.49626
7.54447
7.58599
7.62081
7.6489
7.67028
7.68499
7.69311
7.69468
7.69047
7.67953
7.66201
7.63797
7.60745
7.57051
7.52721
7.47763
7.42184
7.35996
7.2921
7.21841
7.13893
7.05388
6.96358
6.86838
6.76871
6.66541
6.55861
6.44892
6.33729
6.22328
6.10799
5.99224
5.8768
5.76215
5.64903
5.53815
5.43004
5.32507
5.22351
5.12555
5.03117
4.94026
4.85257
4.76775
4.6854
4.60506
4.52627
4.44858
4.37161
4.29503
4.21858
4.14211
4.06554
3.98887
3.91221
3.83567
3.75936
3.6834
3.60789
3.533
3.45895
3.38591
3.31397
3.24322
3.17374
3.10552
3.03885
2.97374
2.9102
2.84824
2.78786
2.72929
2.67243
2.61725
2.56376
2.51193
2.46181
2.41342
2.36677
2.32186
2.27871
2.23732
2.19773
2.15991
2.12392
2.08963
2.05612
0.150549
0.285254
0.362108
0.41787
0.464344
0.505833
0.544365
0.581067
0.616639
0.651556
0.686158
0.720696
0.755363
0.790314
0.825672
0.861542
0.898013
0.935162
0.973065
1.01179
1.05141
1.09198
1.13358
1.17627
1.22012
1.26522
1.31162
1.3594
1.40862
1.45936
1.5117
1.56572
1.62149
1.67907
1.73852
1.79991
1.86327
1.92867
1.99614
2.06571
2.13741
2.21126
2.28727
2.36544
2.44579
2.5283
2.61296
2.69978
2.78872
2.87979
2.97297
3.06824
3.16559
3.26502
3.36651
3.47008
3.57571
3.68339
3.7931
3.90482
4.01852
4.13419
4.25181
4.37127
4.4925
4.61542
4.73994
4.86595
4.99327
5.12173
5.25112
5.38119
5.51167
5.64227
5.77267
5.9025
6.03138
6.15892
6.28468
6.40823
6.52912
6.6469
6.76111
6.87131
6.97706
7.07793
7.17354
7.26351
7.34751
7.42523
7.49642
7.56084
7.61832
7.66873
7.71197
7.74799
7.77678
7.79833
7.81267
7.81984
7.82026
7.8144
7.80116
7.78074
7.75317
7.71849
7.67674
7.62792
7.57211
7.5094
7.43987
7.36368
7.28102
7.19231
7.09768
6.99737
6.8918
6.78168
6.66671
6.54774
6.42545
6.30057
6.1736
6.0454
5.91687
5.78894
5.66242
5.5382
5.41712
5.29989
5.18708
5.0791
4.97618
4.87837
4.78557
4.69748
4.61369
4.53367
4.45684
4.38258