/*--------------------------------*- C++ -*----------------------------------*\
| =========                 |                                                 |
| \\      /  F ield         | OpenFOAM: The Open Source CFD Toolbox           |
|  \\    /   O peration     | Version:  v1712                                 |
|   \\  /    A nd           | Web:      www.OpenFOAM.com                      |
|    \\/     M anipulation  |                                                 |
\*---------------------------------------------------------------------------*/
FoamFile
{
    version     2.0;
    format      ascii;
    class       volScalarField;
    location    "100";
    object      nut;
}
// * * * * * * * * * * * * * * * * * * * * * * * * * * * * * * * * * * * * * //

dimensions      [0 2 -1 0 0 0 0];


internalField   nonuniform List<scalar> 
12225
(
2.70739e-05
3.55749e-05
4.05232e-05
4.3193e-05
4.44521e-05
4.49659e-05
4.49131e-05
4.48748e-05
4.45067e-05
4.41902e-05
4.3858e-05
4.35322e-05
4.32376e-05
4.29593e-05
4.27271e-05
4.24957e-05
4.23373e-05
4.21213e-05
0.000213068
8.46254e-05
5.59043e-05
4.40695e-05
3.83665e-05
3.53677e-05
3.38375e-05
3.30916e-05
3.2844e-05
3.28826e-05
3.32067e-05
3.36068e-05
3.42227e-05
3.4796e-05
3.55813e-05
3.62156e-05
3.71364e-05
3.76298e-05
0.000657682
0.000306297
0.000194167
0.000142041
0.000113268
9.4516e-05
8.20495e-05
7.33443e-05
6.68264e-05
6.19974e-05
5.80749e-05
5.51534e-05
5.25774e-05
5.07632e-05
4.8953e-05
4.79165e-05
4.64248e-05
4.54835e-05
0.000863446
0.000609382
0.000451856
0.000350684
0.000289435
0.000246496
0.000216752
0.000194344
0.000177829
0.000164374
0.000154123
0.000145181
0.000138296
0.000131879
0.000127019
0.000122104
0.000118389
0.000114061
0.000877547
0.000776458
0.000691095
0.00059178
0.000517462
0.000458103
0.000413566
0.000377309
0.000349761
0.000326095
0.000308013
0.000291481
0.000279072
0.000266831
0.000258082
0.000248616
0.000242013
0.000234414
0.000858437
0.000835318
0.000807383
0.00075304
0.000699483
0.000648283
0.000604908
0.000565954
0.000534298
0.0005055
0.000482624
0.000460914
0.000444269
0.000427333
0.000415217
0.000401528
0.0003926
0.000380981
0.000854263
0.000849551
0.000840726
0.000823059
0.000798634
0.000768496
0.00073923
0.000709624
0.000683435
0.000657838
0.000636328
0.000614961
0.000597883
0.000580016
0.000566779
0.000551554
0.000541545
0.000527599
0.000852391
0.000851592
0.000849794
0.000844536
0.000835953
0.000824541
0.000810206
0.000793508
0.000777295
0.000760089
0.000744649
0.000728407
0.000714705
0.000699942
0.000688365
0.000675029
0.00066568
0.000652729
0.000851903
0.00085148
0.000851079
0.000849884
0.000847548
0.000843624
0.000838606
0.000831293
0.000823675
0.000815032
0.000806352
0.000796622
0.000787884
0.000778184
0.000769973
0.000760686
0.000753237
0.00074404
0.000851815
0.000851373
0.000851073
0.00085061
0.000850036
0.000848812
0.000847337
0.000844867
0.000842012
0.000838325
0.000834531
0.000829901
0.000825472
0.000820336
0.000815647
0.000810377
0.000805677
0.000799896
0.000851799
0.000851356
0.000851021
0.000850624
0.000850326
0.000849826
0.000849341
0.000848523
0.000847612
0.000846271
0.000844888
0.000843028
0.000841226
0.000838915
0.000836859
0.000834155
0.000832104
0.000828921
0.000851792
0.000851359
0.000851001
0.000850611
0.000850307
0.000849939
0.000849633
0.000849214
0.00084882
0.000848241
0.000847685
0.000846887
0.000846153
0.000845111
0.000844236
0.000842944
0.000842009
0.000840465
0.000851787
0.000851362
0.000850989
0.000850608
0.000850281
0.000849937
0.000849647
0.000849322
0.000849044
0.000848703
0.000848405
0.000848009
0.000847669
0.000847192
0.0008468
0.000846228
0.000845791
0.000845123
0.000851783
0.000851364
0.00085098
0.000850605
0.000850264
0.000849926
0.000849623
0.000849318
0.000849046
0.000848763
0.000848512
0.000848239
0.000847998
0.000847723
0.000847482
0.000847197
0.000846948
0.000846648
0.000851781
0.000851364
0.000850974
0.0008506
0.000850252
0.000849916
0.000849604
0.000849302
0.000849021
0.000848747
0.000848493
0.000848243
0.00084801
0.000847779
0.000847563
0.000847347
0.000847144
0.00084694
0.00085178
0.000851363
0.00085097
0.000850596
0.000850243
0.000849907
0.000849589
0.000849287
0.000849
0.000848726
0.000848466
0.000848217
0.00084798
0.000847752
0.000847536
0.000847327
0.000847128
0.000846936
0.000851779
0.000851362
0.000850967
0.000850592
0.000850236
0.000849899
0.000849579
0.000849274
0.000848985
0.000848708
0.000848445
0.000848194
0.000847954
0.000847724
0.000847504
0.000847294
0.000847092
0.000846899
0.000851779
0.000851362
0.000850965
0.00085059
0.000850233
0.000849894
0.000849572
0.000849266
0.000848974
0.000848696
0.00084843
0.000848177
0.000847935
0.000847703
0.000847481
0.000847269
0.000847066
0.000846871
0.000851779
0.000851362
0.000850965
0.000850589
0.000850232
0.000849892
0.000849569
0.000849262
0.000848969
0.00084869
0.000848423
0.000848169
0.000847925
0.000847692
0.000847469
0.000847256
0.000847051
0.000846856
0.000851779
0.000851363
0.000850966
0.000850591
0.000850234
0.000849895
0.000849572
0.000849265
0.000848972
0.000848694
0.000848426
0.000848172
0.000847927
0.000847694
0.00084747
0.000847255
0.000847048
0.000846851
0.000851779
0.000851364
0.000850968
0.000850595
0.000850238
0.000849901
0.000849578
0.000849273
0.000848977
0.000848698
0.000848424
0.000848165
0.000847907
0.000847663
0.000847416
0.000847183
0.000846942
0.000846718
0.000851778
0.000851368
0.000850969
0.000850603
0.000850243
0.00084991
0.000849572
0.000849253
0.000848914
0.000848585
0.00084822
0.000847861
0.000847452
0.000847054
0.000846589
0.000846153
0.000845629
0.000845162
0.000851779
0.000851381
0.000850972
0.000850624
0.000850209
0.000849788
0.000849232
0.000848613
0.0008478
0.000846891
0.000845763
0.000844551
0.000843115
0.000841651
0.000839943
0.000838314
0.000836369
0.000834683
0.000851856
0.000851467
0.000850932
0.000850394
0.000849126
0.000847455
0.000844944
0.000841932
0.000838065
0.000833832
0.000828945
0.000823901
0.000818427
0.00081296
0.000807241
0.000801669
0.000795872
0.000790792
0.000852785
0.000851379
0.000849189
0.000845092
0.00083688
0.000827809
0.000815737
0.000802802
0.000788346
0.00077433
0.000759616
0.000746018
0.000732051
0.000719605
0.000706733
0.000695749
0.000683993
0.000674601
0.000858212
0.000842298
0.000828961
0.000803005
0.000769247
0.00073545
0.000700771
0.000669657
0.00063944
0.000613521
0.00058853
0.000567649
0.000547212
0.000530545
0.000513748
0.000500485
0.000486443
0.000475942
0.000864341
0.000785611
0.000712708
0.000628284
0.000558257
0.000503051
0.000455703
0.000418808
0.000386559
0.000361516
0.000338681
0.000321135
0.000304321
0.000291669
0.000278811
0.000269442
0.000259268
0.000252201
0.000775967
0.000540051
0.000397932
0.000312941
0.000258133
0.000219603
0.000190473
0.000169526
0.000152514
0.000139948
0.000129053
0.000120969
0.000113482
0.000108025
0.000102587
9.8761e-05
9.46421e-05
9.18672e-05
0.000323584
0.000164836
0.00011141
8.60702e-05
7.0819e-05
6.13492e-05
5.50117e-05
5.08807e-05
4.79477e-05
4.60054e-05
4.45863e-05
4.36843e-05
4.3036e-05
4.26916e-05
4.24522e-05
4.24361e-05
4.24324e-05
4.26188e-05
3.26575e-05
3.90517e-05
4.38921e-05
4.69712e-05
4.93653e-05
5.11689e-05
5.25333e-05
5.34572e-05
5.41117e-05
5.44591e-05
5.46864e-05
5.46906e-05
5.46468e-05
5.45411e-05
5.43669e-05
5.4158e-05
5.39317e-05
5.36935e-05
5.79135e-06
1.74109e-05
2.11841e-05
2.38964e-05
2.58794e-05
2.73603e-05
2.84801e-05
2.94155e-05
3.02717e-05
3.10201e-05
3.17395e-05
3.24892e-05
3.33254e-05
3.42937e-05
3.54594e-05
3.6808e-05
3.82454e-05
3.97456e-05
4.13128e-05
4.29434e-05
4.46447e-05
4.64152e-05
4.82688e-05
5.01876e-05
5.21558e-05
5.41611e-05
5.62018e-05
5.82511e-05
6.03045e-05
6.2348e-05
6.43752e-05
6.63742e-05
6.83425e-05
7.02708e-05
7.21588e-05
7.39997e-05
7.57957e-05
7.75423e-05
7.92434e-05
8.08958e-05
8.2504e-05
8.40661e-05
8.55867e-05
8.70644e-05
8.85039e-05
8.99042e-05
9.12695e-05
9.25992e-05
9.38987e-05
9.51668e-05
9.64075e-05
9.76197e-05
9.88067e-05
9.99675e-05
0.000101105
0.000102217
0.000103307
0.000104374
0.000105418
0.00010644
0.000107439
0.000108416
0.00010937
0.000110303
0.000111212
0.0001121
0.000112966
0.000113809
0.000114628
0.000115421
0.000116188
0.000116929
0.000117643
0.000118331
0.000118991
0.000119625
0.000120232
0.000120814
0.000121369
0.000121903
0.000122412
0.000122904
0.000123376
0.000123833
0.000124268
0.000124681
0.000125064
0.000125444
0.000125842
0.0001262
0.000126568
0.000126924
0.000127269
0.0001276
0.000127901
0.000128143
0.000128263
0.000128123
0.000127025
0.000128914
0.000131773
0.000129371
0.000131806
0.000131522
0.000131871
0.000131989
0.000131998
0.000131659
0.000132159
0.000129669
0.00013254
0.000130899
0.00013083
0.000131943
0.000133276
0.000131283
0.000132096
0.000133463
0.0001327
0.000131667
0.000132569
0.000132049
0.000132021
0.000131778
0.000131463
0.000131103
0.000130688
0.000130223
0.000129711
0.000129141
0.000128504
0.000127803
0.000127032
0.00012619
0.000125294
0.000124332
0.000123281
0.000122154
0.00012095
0.000119666
0.000118319
0.000116913
0.000115364
0.000113787
0.000112358
0.00010999
0.0001078
0.000106547
0.000105406
0.000104254
0.000103074
0.00010188
0.000100655
9.94544e-05
9.8266e-05
9.70194e-05
9.57403e-05
9.45421e-05
9.33544e-05
9.21473e-05
9.09362e-05
8.97313e-05
8.85516e-05
8.74029e-05
8.62785e-05
8.51772e-05
8.41055e-05
8.30639e-05
8.20513e-05
8.10687e-05
8.01159e-05
7.91916e-05
7.82941e-05
7.74177e-05
7.65679e-05
7.57006e-05
7.49203e-05
7.37759e-05
7.37847e-05
7.05669e-05
9.73076e-06
5.93493e-05
0.000121045
0.000168132
0.000200606
0.000223129
0.000238427
0.000247935
0.000252523
0.000254874
0.000256586
0.000258525
0.000261069
0.00026429
0.000268056
0.000272134
0.000276523
0.000281449
0.000287011
0.000293276
0.000300294
0.000308116
0.000316779
0.000326327
0.000336781
0.000348133
0.000360347
0.000373389
0.000387181
0.000401717
0.000416886
0.000432586
0.00044871
0.000465155
0.000481813
0.000498584
0.00051537
0.000532089
0.000548673
0.00056507
0.000581228
0.000597115
0.000612699
0.000627963
0.000642889
0.000657465
0.000671675
0.000685499
0.000698998
0.000712201
0.000725117
0.000737758
0.000750133
0.000762254
0.000774129
0.000785766
0.000797169
0.000808344
0.000819294
0.000830018
0.000840518
0.000850791
0.000860836
0.000870648
0.000880229
0.000889574
0.00089869
0.00090758
0.000916244
0.000924599
0.00093264
0.000940351
0.000947726
0.000954751
0.000961426
0.000967736
0.000973687
0.000979268
0.000984492
0.000989356
0.000993877
0.000998053
0.0010019
0.00100542
0.00100864
0.00101159
0.00101437
0.00101702
0.00101953
0.0010219
0.00102436
0.00102685
0.00102948
0.0010323
0.0010354
0.00103889
0.00104292
0.00104769
0.00105343
0.00106079
0.00106459
0.0010657
0.00107268
0.00107692
0.00108201
0.00108638
0.00109002
0.00109297
0.00109702
0.00109837
0.0011061
0.00111156
0.0011216
0.00112321
0.00113092
0.00112795
0.00113264
0.00114413
0.00114463
0.00115064
0.00115047
0.00115519
0.00115992
0.00116577
0.00116932
0.0011725
0.00117511
0.00117712
0.00117855
0.00117936
0.00117923
0.00117825
0.00117636
0.00117352
0.00116977
0.00116518
0.00115956
0.00115302
0.00114558
0.00113725
0.00112809
0.00111822
0.00110743
0.00109569
0.0010843
0.00107047
0.00105233
0.00103279
0.00101259
0.000992096
0.000971478
0.000950915
0.000930454
0.00091022
0.000890186
0.000870522
0.000851094
0.000832344
0.000814356
0.00079673
0.000779471
0.000762694
0.000746469
0.000730736
0.000715414
0.000700546
0.000686169
0.00067225
0.000658774
0.000645752
0.000633146
0.000620962
0.000609081
0.000597658
0.000586216
0.000575326
0.000564378
0.000549644
0.000536337
0.00048136
1.22876e-05
8.78712e-05
0.00018406
0.000264548
0.000327572
0.000375377
0.000411003
0.000437101
0.000455792
0.000469217
0.000479256
0.000487417
0.000494835
0.000502311
0.000510385
0.000519415
0.000529671
0.000541359
0.000554597
0.00056945
0.000585951
0.00060412
0.000623972
0.000645505
0.000668685
0.000693429
0.000719588
0.000747645
0.000777678
0.000808886
0.000840948
0.000873654
0.000906833
0.000940332
0.000973993
0.00100766
0.00104117
0.00107437
0.0011072
0.00113958
0.00117146
0.00120279
0.00123355
0.0012637
0.00129324
0.00132217
0.00135048
0.00137819
0.00140533
0.00143191
0.00145798
0.00148353
0.00150858
0.00153317
0.00155729
0.00158097
0.00160421
0.00162703
0.00164942
0.00167139
0.00169295
0.00171409
0.0017348
0.00175509
0.00177494
0.00179434
0.00181328
0.00183175
0.00184973
0.00186719
0.0018841
0.00190045
0.00191621
0.00193137
0.00194592
0.00195984
0.00197311
0.00198573
0.00199768
0.00200898
0.00201962
0.00202961
0.00203897
0.00204773
0.00205593
0.00206363
0.0020709
0.00207777
0.00208428
0.00209052
0.00209662
0.00210262
0.00210864
0.00211476
0.00212108
0.00212771
0.00213471
0.00214206
0.00214956
0.00215661
0.00216174
0.00216685
0.00217418
0.0021804
0.00218683
0.00219279
0.00219841
0.00220418
0.00221044
0.00221635
0.00222536
0.00223374
0.00224283
0.00224821
0.00225589
0.00225948
0.00226697
0.00227721
0.00228367
0.00228913
0.00229244
0.00229743
0.0023028
0.00230813
0.00231186
0.00231456
0.0023161
0.00231637
0.00231529
0.00231276
0.0023086
0.00230279
0.00229526
0.00228594
0.00227485
0.00226202
0.00224737
0.00223095
0.00221281
0.00219303
0.00217168
0.00214891
0.00212468
0.002099
0.00207264
0.00204427
0.00201235
0.00197831
0.00194311
0.0019073
0.00187123
0.00183515
0.00179922
0.0017636
0.00172854
0.00169427
0.00166063
0.00162849
0.00159782
0.0015675
0.00153771
0.00150886
0.00148108
0.00145415
0.0014278
0.00140221
0.00137749
0.00135352
0.00133027
0.00130777
0.00128595
0.00126478
0.0012441
0.00122404
0.00120402
0.00118461
0.00116472
0.00114227
0.00112446
0.00104799
1.41644e-05
0.000115188
0.000237623
0.000341369
0.000424837
0.000490452
0.000541272
0.000580152
0.000609665
0.00063215
0.00064972
0.000664231
0.000677261
0.000690082
0.000703668
0.000718721
0.000735711
0.000754931
0.000776537
0.000800593
0.000827111
0.000856068
0.000887423
0.00092112
0.00095709
0.000995266
0.00103561
0.00107752
0.00112045
0.00116446
0.00120936
0.00125488
0.00130085
0.00134718
0.00139372
0.00144034
0.00148701
0.00153321
0.00157889
0.00162396
0.00166836
0.00171203
0.00175496
0.00179711
0.00183848
0.00187906
0.00191886
0.00195789
0.00199618
0.00203375
0.00207061
0.0021068
0.00214232
0.0021772
0.00221147
0.00224513
0.0022782
0.00231069
0.00234261
0.00237396
0.00240476
0.00243498
0.00246464
0.00249371
0.0025222
0.00255009
0.00257735
0.00260397
0.00262993
0.00265521
0.00267977
0.00270359
0.00272665
0.00274893
0.0027704
0.00279104
0.00281083
0.00282976
0.00284781
0.00286497
0.00288124
0.00289663
0.00291117
0.00292488
0.00293782
0.00295004
0.00296159
0.00297251
0.00298287
0.00299275
0.00300223
0.0030114
0.00302033
0.00302911
0.00303781
0.00304648
0.00305511
0.00306362
0.0030718
0.00307933
0.00308604
0.00309276
0.00309995
0.00310668
0.00311325
0.00311946
0.00312548
0.00313159
0.00313795
0.00314456
0.00315225
0.00315964
0.00316693
0.0031728
0.0031796
0.00318465
0.00319111
0.00320026
0.00320523
0.00320898
0.00321256
0.00321655
0.0032201
0.00322295
0.00322448
0.0032247
0.00322347
0.00322065
0.00321611
0.00320971
0.00320131
0.00319084
0.00317828
0.0031635
0.00314646
0.00312714
0.00310551
0.00308162
0.00305551
0.00302728
0.00299702
0.00296486
0.00293091
0.00289527
0.00285826
0.00281936
0.00277786
0.00273437
0.00268961
0.0026441
0.00259824
0.00255231
0.00250653
0.00246109
0.00241626
0.00237226
0.0023291
0.00228719
0.00224668
0.00220723
0.00216961
0.0021335
0.00209894
0.00206554
0.00203256
0.00200065
0.00196996
0.00194015
0.00191122
0.00188328
0.00185616
0.00182981
0.00180411
0.00177905
0.00175419
0.00172984
0.00170505
0.00167845
0.00165736
0.00158314
1.56366e-05
0.000137858
0.000283776
0.000407551
0.000508087
0.000588401
0.000651839
0.000701672
0.000740779
0.000771731
0.000796845
0.000818187
0.000837561
0.000856481
0.000876152
0.000897477
0.000921081
0.000947357
0.000976516
0.00100864
0.00104373
0.00108171
0.00112248
0.0011659
0.0012118
0.00125999
0.00131021
0.00136211
0.00141538
0.00146981
0.0015252
0.00158135
0.00163803
0.00169494
0.00175187
0.00180862
0.00186498
0.00192084
0.0019761
0.0020307
0.00208455
0.00213762
0.00218985
0.00224122
0.00229172
0.00234134
0.00239009
0.00243797
0.00248501
0.00253121
0.00257661
0.00262121
0.00266505
0.00270814
0.0027505
0.00279215
0.00283312
0.0028734
0.00291301
0.00295195
0.00299024
0.00302786
0.00306482
0.00310109
0.00313668
0.00317155
0.00320571
0.00323911
0.00327174
0.00330356
0.00333456
0.0033647
0.00339394
0.00342227
0.00344965
0.00347605
0.00350144
0.0035258
0.0035491
0.00357133
0.00359248
0.00361255
0.00363154
0.0036495
0.00366645
0.00368244
0.0036975
0.0037117
0.00372507
0.00373768
0.00374959
0.00376088
0.00377161
0.00378183
0.00379162
0.00380099
0.00380995
0.00381844
0.00382632
0.00383352
0.00384007
0.00384629
0.00385231
0.00385793
0.00386323
0.00386825
0.00387303
0.0038777
0.00388237
0.00388723
0.00389248
0.00389707
0.003902
0.00390761
0.00391258
0.00391576
0.00391924
0.00392345
0.00392618
0.00392831
0.00392999
0.00393138
0.00393214
0.00393201
0.00393067
0.00392799
0.00392379
0.00391793
0.00391023
0.00390054
0.00388872
0.00387464
0.00385825
0.00383939
0.00381802
0.00379409
0.0037676
0.00373856
0.00370705
0.00367313
0.00363694
0.00359862
0.0035583
0.00351609
0.00347218
0.0034264
0.00337854
0.00332895
0.00327813
0.00322653
0.00317454
0.00312244
0.00307049
0.0030189
0.00296791
0.00291773
0.00286848
0.0028204
0.00277364
0.00272814
0.00268424
0.00264193
0.00260174
0.00256354
0.00252684
0.00249168
0.0024581
0.00242536
0.00239356
0.00236294
0.00233319
0.00230424
0.0022761
0.00224861
0.00222147
0.00219478
0.00216789
0.00213984
0.00211617
0.00205043
1.68052e-05
0.000157663
0.000324452
0.000466085
0.000581685
0.000675123
0.00074996
0.000809864
0.000857997
0.000897138
0.000929758
0.000958056
0.000983957
0.0010091
0.00103482
0.00106214
0.0010918
0.00112428
0.00115986
0.00119864
0.00124063
0.00128573
0.0013338
0.00138465
0.00143805
0.00149375
0.00155147
0.0016109
0.00167177
0.00173381
0.00179676
0.0018604
0.00192447
0.00198874
0.00205298
0.00211702
0.00218068
0.00224383
0.00230636
0.0023682
0.00242928
0.00248952
0.0025489
0.00260738
0.00266495
0.00272159
0.00277731
0.00283211
0.00288601
0.00293901
0.00299115
0.00304243
0.00309288
0.00314252
0.00319138
0.00323947
0.0032868
0.00333339
0.00337926
0.00342441
0.00346884
0.00351255
0.00355553
0.00359778
0.00363929
0.00368002
0.00371997
0.00375911
0.0037974
0.00383481
0.00387132
0.00390688
0.00394147
0.00397503
0.00400754
0.00403895
0.00406922
0.00409832
0.00412622
0.00415288
0.00417829
0.00420242
0.00422529
0.0042469
0.00426727
0.00428643
0.00430441
0.00432124
0.00433695
0.00435161
0.00436524
0.00437792
0.00438968
0.00440057
0.00441064
0.00441993
0.00442843
0.00443615
0.00444302
0.00444905
0.00445429
0.00445888
0.00446291
0.00446636
0.00446931
0.00447187
0.00447394
0.00447569
0.00447704
0.00447841
0.00448048
0.00448245
0.00448333
0.00448426
0.00448481
0.00448452
0.00448427
0.00448394
0.00448299
0.00448158
0.00447974
0.00447746
0.00447455
0.00447082
0.00446604
0.00446006
0.00445271
0.0044438
0.00443316
0.00442063
0.00440603
0.00438923
0.0043701
0.00434851
0.00432438
0.00429765
0.00426828
0.00423629
0.00420172
0.00416466
0.00412521
0.00408352
0.0040397
0.00399388
0.00394621
0.00389672
0.00384544
0.00379264
0.00373868
0.00368395
0.00362878
0.00357345
0.00351823
0.00346334
0.003409
0.00335542
0.00330274
0.00325116
0.00320081
0.00315175
0.00310417
0.00305814
0.00301391
0.00297155
0.00293147
0.00289358
0.00285779
0.0028237
0.00279111
0.00275996
0.00272954
0.00269986
0.00267105
0.00264275
0.00261488
0.00258745
0.00256004
0.00253203
0.00250692
0.00245045
1.77656e-05
0.000174876
0.000359835
0.000517384
0.000646632
0.000752178
0.00083771
0.000907214
0.000964083
0.00101126
0.00105132
0.00108656
0.00111895
0.0011502
0.00118171
0.00121458
0.00124963
0.00128741
0.00132827
0.00137236
0.00141968
0.00147016
0.00152365
0.00157992
0.00163875
0.00169985
0.00176295
0.00182774
0.00189396
0.00196133
0.00202958
0.00209847
0.00216777
0.00223725
0.00230672
0.00237599
0.0024449
0.00251334
0.00258118
0.00264835
0.00271476
0.00278036
0.0028451
0.00290896
0.0029719
0.00303391
0.00309499
0.00315515
0.00321439
0.00327272
0.00333016
0.00338673
0.00344245
0.00349735
0.00355143
0.00360473
0.00365725
0.00370902
0.00376005
0.00381033
0.00385989
0.00390871
0.00395678
0.00400411
0.00405067
0.00409645
0.00414141
0.00418553
0.00422878
0.00427111
0.00431249
0.00435287
0.00439221
0.00443046
0.00446757
0.00450349
0.00453817
0.00457155
0.00460359
0.00463425
0.00466349
0.00469128
0.0047176
0.00474244
0.0047658
0.00478769
0.00480812
0.00482711
0.00484467
0.00486085
0.00487566
0.00488916
0.00490138
0.00491235
0.00492212
0.00493072
0.00493817
0.00494449
0.00494969
0.00495379
0.00495684
0.00495893
0.00496014
0.00496047
0.00496008
0.00495929
0.00495753
0.00495538
0.00495292
0.00495006
0.00494722
0.00494373
0.00493982
0.00493558
0.00493093
0.00492583
0.00492055
0.00491509
0.00490932
0.00490325
0.00489688
0.00489015
0.00488296
0.00487515
0.00486656
0.00485704
0.00484643
0.00483454
0.0048212
0.00480623
0.00478943
0.00477064
0.0047497
0.00472648
0.00470085
0.00467272
0.00464203
0.00460878
0.00457299
0.00453473
0.00449407
0.00445113
0.00440602
0.00435887
0.00430978
0.0042589
0.00420635
0.00415239
0.00409733
0.0040415
0.00398518
0.00392866
0.00387218
0.00381597
0.00376024
0.00370519
0.00365099
0.00359781
0.00354578
0.003495
0.0034456
0.00339768
0.00335139
0.00330684
0.00326424
0.00322396
0.00318642
0.00315131
0.00311824
0.00308694
0.0030569
0.0030279
0.00299975
0.00297192
0.00294459
0.00291764
0.00289088
0.00286392
0.0028386
0.00279067
1.87935e-05
0.000188768
0.000389138
0.000560939
0.000702745
0.000819642
0.000915357
0.000994112
0.00105948
0.00111453
0.00116193
0.00120399
0.00124273
0.00127987
0.00131684
0.0013548
0.0013946
0.00143687
0.001482
0.00153018
0.00158149
0.00163585
0.00169314
0.00175315
0.00181563
0.00188034
0.00194698
0.00201529
0.00208498
0.00215579
0.00222748
0.00229979
0.00237251
0.00244542
0.00251835
0.00259113
0.0026636
0.00273564
0.00280715
0.00287803
0.00294821
0.00301762
0.00308621
0.00315396
0.00322084
0.00328682
0.0033519
0.00341609
0.00347938
0.00354178
0.00360332
0.003664
0.00372385
0.0037829
0.00384115
0.00389863
0.00395536
0.00401136
0.00406663
0.00412119
0.00417504
0.00422818
0.0042806
0.0043323
0.00438325
0.00443343
0.00448281
0.00453136
0.00457905
0.00462581
0.00467162
0.0047164
0.00476012
0.00480269
0.00484407
0.00488419
0.00492299
0.00496039
0.00499633
0.00503075
0.0050636
0.00509483
0.00512438
0.00515225
0.00517839
0.00520279
0.00522545
0.00524636
0.00526553
0.00528297
0.0052987
0.00531275
0.00532513
0.00533589
0.00534506
0.00535267
0.00535875
0.00536335
0.0053665
0.00536822
0.00536858
0.00536762
0.00536551
0.00536206
0.00535745
0.00535245
0.00534677
0.00534009
0.00533258
0.00532447
0.00531588
0.00530669
0.00529698
0.00528683
0.00527628
0.00526538
0.00525427
0.00524302
0.00523163
0.00522012
0.0052085
0.00519673
0.00518476
0.00517249
0.00515979
0.00514655
0.0051326
0.00511779
0.00510192
0.00508481
0.00506625
0.00504607
0.00502406
0.00500006
0.00497392
0.00494551
0.00491475
0.00488159
0.00484602
0.00480807
0.00476781
0.0047253
0.00468063
0.00463389
0.00458517
0.00453463
0.00448247
0.00442894
0.00437433
0.00431892
0.00426298
0.00420676
0.00415051
0.00409445
0.00403879
0.00398371
0.0039294
0.00387602
0.0038237
0.00377256
0.00372271
0.00367425
0.00362731
0.00358198
0.00353843
0.00349688
0.00345799
0.00342225
0.00338905
0.00335792
0.00332838
0.00330015
0.00327296
0.0032465
0.00322062
0.00319498
0.00316959
0.00314425
0.00311966
0.00307886
1.98171e-05
0.000197469
0.000410978
0.000595938
0.000749521
0.000877158
0.000982581
0.00107022
0.00114379
0.00120648
0.00126099
0.00130967
0.00135453
0.00139729
0.00143938
0.00148197
0.00152595
0.00157199
0.00162052
0.00167181
0.00172596
0.00178296
0.00184269
0.00190499
0.00196965
0.00203641
0.00210504
0.00217526
0.00224682
0.00231947
0.00239297
0.00246711
0.00254168
0.00261648
0.00269134
0.00276611
0.00284065
0.00291483
0.00298855
0.00306172
0.00313426
0.0032061
0.00327721
0.00334753
0.00341705
0.00348574
0.00355359
0.0036206
0.00368677
0.00375211
0.00381664
0.00388036
0.00394331
0.0040055
0.00406695
0.0041277
0.00418775
0.00424713
0.00430584
0.00436391
0.00442133
0.00447811
0.00453423
0.00458969
0.00464447
0.00469854
0.00475187
0.00480443
0.00485616
0.00490701
0.00495693
0.00500585
0.0050537
0.00510041
0.0051459
0.00519009
0.00523289
0.00527422
0.00531401
0.00535216
0.00538859
0.00542324
0.00545604
0.00548694
0.00551588
0.00554282
0.00556773
0.00559059
0.00561139
0.00563011
0.00564676
0.00566135
0.0056739
0.00568443
0.00569297
0.00569956
0.00570424
0.00570705
0.00570803
0.00570726
0.00570476
0.00570048
0.00569436
0.00568695
0.00567858
0.00566934
0.0056586
0.0056467
0.00563374
0.00561988
0.00560524
0.00558985
0.00557382
0.00555726
0.00554025
0.00552293
0.00550541
0.00548781
0.0054702
0.00545267
0.00543524
0.00541794
0.00540077
0.00538368
0.00536659
0.00534941
0.00533201
0.00531425
0.00529594
0.00527691
0.00525693
0.00523577
0.00521325
0.00518915
0.00516331
0.00513553
0.00510569
0.0050737
0.00503951
0.00500313
0.00496455
0.00492382
0.00488097
0.00483604
0.0047891
0.00474027
0.00468979
0.00463794
0.00458499
0.00453121
0.00447682
0.00442207
0.0043672
0.00431241
0.00425792
0.00420391
0.00415057
0.00409805
0.00404649
0.00399603
0.00394675
0.00389878
0.00385221
0.00380716
0.00376375
0.00372218
0.00368287
0.00364702
0.00361406
0.00358339
0.00355453
0.00352714
0.00350098
0.00347578
0.00345138
0.00342757
0.00340405
0.00338068
0.00335743
0.00332252
2.06486e-05
0.000203294
0.000427097
0.000623224
0.00078725
0.000924649
0.00103908
0.00113505
0.00121638
0.00128631
0.00134759
0.00140255
0.00145319
0.00150122
0.00154804
0.00159481
0.00164245
0.00169163
0.00174285
0.00179641
0.00185245
0.00191103
0.00197207
0.00203545
0.00210099
0.0021685
0.00223773
0.00230847
0.00238047
0.00245352
0.00252741
0.00260193
0.00267691
0.00275217
0.00282757
0.00290295
0.00297819
0.00305317
0.00312777
0.00320191
0.0032755
0.0033485
0.00342084
0.00349249
0.00356341
0.0036336
0.00370303
0.00377171
0.00383963
0.00390681
0.00397325
0.00403898
0.00410401
0.00416838
0.0042321
0.00429521
0.00435773
0.00441967
0.00448106
0.0045419
0.00460221
0.00466198
0.00472122
0.0047799
0.00483802
0.00489554
0.00495243
0.00500864
0.00506412
0.00511881
0.00517265
0.00522555
0.00527744
0.00532822
0.0053778
0.00542608
0.00547296
0.00551832
0.00556207
0.0056041
0.0056443
0.00568258
0.00571884
0.005753
0.00578498
0.00581472
0.00584215
0.00586723
0.00588992
0.0059102
0.00592804
0.00594344
0.00595641
0.00596696
0.00597512
0.00598091
0.00598438
0.00598559
0.00598458
0.00598144
0.00597604
0.00596837
0.00595879
0.00594787
0.00593543
0.00592129
0.00590553
0.00588829
0.0058697
0.00584991
0.00582905
0.00580725
0.00578464
0.00576136
0.00573757
0.00571343
0.00568909
0.00566473
0.00564047
0.00561646
0.00559279
0.00556954
0.00554678
0.00552451
0.00550272
0.00548136
0.00546034
0.00543953
0.00541878
0.00539793
0.00537671
0.00535488
0.00533225
0.00530858
0.00528366
0.00525724
0.00522914
0.0051992
0.00516734
0.00513352
0.00509769
0.00505983
0.00501994
0.004978
0.00493397
0.00488795
0.00484018
0.00479104
0.00474076
0.00468957
0.0046377
0.00458535
0.00453277
0.00448016
0.00442773
0.00437566
0.00432413
0.00427331
0.00422334
0.00417436
0.00412647
0.00407978
0.00403439
0.00399042
0.00394799
0.00390729
0.00386867
0.00383338
0.00380111
0.00377119
0.00374317
0.00371673
0.00369162
0.00366763
0.0036446
0.00362239
0.0036008
0.00357957
0.00355799
0.00352797
2.13223e-05
0.000206954
0.000438314
0.000643354
0.000816222
0.000961979
0.00108457
0.00118811
0.00127655
0.00135315
0.00142067
0.00148142
0.00153738
0.0015902
0.00164128
0.00169174
0.0017425
0.00179425
0.0018475
0.00190258
0.00195971
0.00201896
0.00208034
0.00214375
0.00220907
0.00227613
0.00234475
0.00241472
0.00248586
0.00255797
0.00263087
0.00270439
0.0027784
0.00285276
0.00292735
0.00300204
0.00307671
0.00315121
0.00322542
0.00329926
0.00337265
0.00344552
0.00351784
0.00358956
0.00366067
0.00373114
0.00380096
0.00387014
0.00393867
0.00400656
0.00407383
0.0041405
0.0042066
0.00427214
0.00433718
0.00440174
0.00446586
0.00452955
0.00459284
0.00465573
0.00471825
0.0047804
0.00484218
0.00490358
0.00496457
0.00502514
0.00508525
0.00514484
0.00520386
0.00526223
0.00531989
0.00537674
0.00543268
0.0054876
0.0055414
0.00559395
0.00564512
0.00569478
0.00574281
0.00578906
0.00583341
0.00587572
0.00591588
0.00595376
0.00598927
0.00602229
0.00605274
0.00608055
0.00610566
0.006128
0.00614755
0.00616428
0.00617817
0.00618924
0.00619749
0.00620295
0.00620566
0.00620568
0.00620307
0.00619789
0.0061899
0.00617957
0.00616697
0.00615246
0.00613589
0.00611725
0.00609665
0.00607422
0.0060501
0.00602446
0.00599745
0.00596925
0.00594002
0.00590996
0.00587925
0.00584811
0.00581673
0.00578535
0.00575415
0.00572333
0.00569308
0.00566353
0.00563483
0.00560705
0.00558023
0.00555442
0.00552954
0.00550549
0.00548219
0.00545955
0.00543717
0.00541483
0.00539236
0.00536949
0.00534597
0.00532149
0.00529579
0.00526861
0.00523983
0.00520937
0.00517716
0.00514309
0.00510711
0.00506917
0.00502901
0.0049867
0.00494247
0.0048969
0.00485013
0.00480237
0.00475381
0.00470466
0.00465514
0.00460547
0.00455584
0.00450643
0.00445742
0.00440899
0.0043613
0.00431448
0.00426863
0.00422386
0.00418029
0.00413805
0.00409729
0.00405818
0.00402109
0.00398716
0.00395602
0.00392715
0.00390015
0.00387475
0.00385072
0.00382789
0.00380614
0.00378537
0.00376542
0.00374615
0.00372634
0.00370038
2.18469e-05
0.000208738
0.000445127
0.000656864
0.000836871
0.000989557
0.00111894
0.001229
0.00132364
0.00140609
0.00147909
0.00154494
0.00160556
0.00166256
0.00171729
0.00177085
0.00182412
0.0018778
0.00193241
0.00198832
0.00204576
0.00210486
0.00216567
0.00222815
0.00229222
0.00235775
0.00242459
0.00249259
0.00256159
0.00263143
0.00270197
0.00277309
0.00284462
0.00291667
0.00298914
0.00306187
0.00313485
0.00320768
0.00328026
0.00335253
0.00342442
0.00349589
0.00356689
0.00363741
0.00370743
0.00377693
0.0038459
0.00391436
0.0039823
0.00404975
0.00411673
0.00418324
0.00424932
0.004315
0.00438035
0.00444543
0.00451026
0.00457486
0.00463926
0.00470348
0.00476754
0.00483146
0.00489523
0.00495886
0.00502232