/*--------------------------------*- C++ -*----------------------------------*\
| =========                 |                                                 |
| \\      /  F ield         | OpenFOAM: The Open Source CFD Toolbox           |
|  \\    /   O peration     | Version:  v1712                                 |
|   \\  /    A nd           | Web:      www.OpenFOAM.com                      |
|    \\/     M anipulation  |                                                 |
\*---------------------------------------------------------------------------*/
FoamFile
{
    version     2.0;
    format      ascii;
    class       volScalarField;
    location    "100";
    object      p;
}
// * * * * * * * * * * * * * * * * * * * * * * * * * * * * * * * * * * * * * //

dimensions      [0 2 -2 0 0 0 0];


internalField   nonuniform List<scalar> 
12225
(
-2.55101
-4.7086
-5.80165
-6.11623
-6.29425
-6.47446
-6.6243
-6.73814
-6.83233
-6.91813
-6.99892
-7.07602
-7.15105
-7.22597
-7.30364
-7.38433
-7.4832
-7.55251
-5.68115
-6.46896
-6.67464
-6.58741
-6.56361
-6.62936
-6.71419
-6.79067
-6.86269
-6.93478
-7.00678
-7.07803
-7.14902
-7.22091
-7.2957
-7.37523
-7.46503
-7.57949
-6.06118
-5.99537
-6.11538
-6.20331
-6.31285
-6.45683
-6.59333
-6.70592
-6.8024
-6.89088
-6.97398
-7.05279
-7.12882
-7.20382
-7.28006
-7.35914
-7.44622
-7.5391
-5.93387
-5.84671
-6.10635
-6.2994
-6.42309
-6.54574
-6.66103
-6.75749
-6.84107
-6.91907
-6.99391
-7.06615
-7.13679
-7.20711
-7.27863
-7.35228
-7.42933
-7.50358
-5.9254
-5.94019
-6.18765
-6.35357
-6.44766
-6.54748
-6.65143
-6.74391
-6.82634
-6.90415
-6.97921
-7.05174
-7.12243
-7.19226
-7.26225
-7.33264
-7.40293
-7.46853
-5.98635
-6.03163
-6.21862
-6.35946
-6.45077
-6.54826
-6.65048
-6.74287
-6.82545
-6.90293
-6.97726
-7.04876
-7.11804
-7.18589
-7.25293
-7.31897
-7.383
-7.44143
-6.04883
-6.09128
-6.23578
-6.36693
-6.46216
-6.55727
-6.65488
-6.74444
-6.82522
-6.90098
-6.97358
-7.04336
-7.11075
-7.17627
-7.2402
-7.3021
-7.36082
-7.41339
-6.10417
-6.14154
-6.25951
-6.38116
-6.47582
-6.56621
-6.65821
-6.7445
-6.82337
-6.89745
-6.96838
-7.03649
-7.102
-7.16519
-7.22612
-7.28426
-7.3385
-7.38656
-6.15572
-6.18974
-6.28775
-6.39736
-6.48851
-6.57431
-6.66122
-6.74423
-6.82104
-6.89329
-6.9624
-7.02865
-7.09209
-7.15284
-7.21082
-7.26548
-7.31592
-7.3604
-6.20454
-6.23531
-6.31711
-6.41444
-6.50099
-6.5826
-6.66472
-6.74414
-6.81852
-6.88869
-6.95574
-7.0199
-7.08112
-7.13936
-7.19449
-7.24602
-7.29321
-7.3348
-6.25043
-6.2777
-6.34651
-6.43254
-6.51379
-6.59118
-6.66865
-6.74427
-6.8159
-6.88376
-6.94857
-7.0105
-7.06937
-7.1251
-7.17752
-7.22622
-7.27065
-7.3099
-6.28961
-6.31376
-6.37305
-6.44978
-6.52571
-6.59909
-6.67243
-6.74451
-6.81343
-6.87899
-6.94162
-7.00138
-7.05808
-7.11154
-7.16161
-7.20794
-7.25019
-7.28765
-6.32553
-6.34701
-6.39846
-6.46691
-6.53746
-6.60681
-6.6762
-6.74479
-6.81093
-6.87411
-6.93447
-6.99203
-7.04657
-7.09787
-7.14573
-7.18994
-7.23024
-7.26618
-6.36276
-6.3816
-6.42576
-6.48599
-6.55054
-6.61532
-6.68037
-6.74505
-6.80797
-6.86835
-6.92609
-6.98111
-7.03322
-7.08217
-7.12775
-7.16977
-7.20815
-7.24258
-6.39974
-6.41603
-6.45365
-6.50611
-6.56435
-6.6241
-6.68454
-6.74498
-6.80426
-6.8615
-6.9163
-6.96849
-7.01793
-7.06439
-7.10766
-7.14754
-7.18404
-7.21704
-6.43413
-6.44807
-6.4801
-6.52562
-6.57762
-6.63219
-6.68793
-6.74399
-6.79938
-6.85324
-6.90491
-6.95415
-7.00076
-7.04468
-7.08567
-7.12357
-7.1583
-7.18997
-6.46248
-6.47447
-6.50201
-6.54177
-6.58819
-6.63784
-6.68913
-6.74103
-6.79258
-6.843
-6.89161
-6.93795
-6.98185
-7.02328
-7.06212
-7.09819
-7.13141
-7.16184
-6.47977
-6.49034
-6.51474
-6.55034
-6.59252
-6.63824
-6.68591
-6.73435
-6.78264
-6.83005
-6.87595
-6.91979
-6.96136
-7.00063
-7.03762
-7.07213
-7.10409
-7.13351
-6.47826
-6.48817
-6.51115
-6.54488
-6.5851
-6.62884
-6.67452
-6.72101
-6.76739
-6.81293
-6.85706
-6.89924
-6.93925
-6.97708
-7.01279
-7.04625
-7.07737
-7.10617
-6.45243
-6.46284
-6.48695
-6.52232
-6.56423
-6.60921
-6.6557
-6.70272
-6.74951
-6.79523
-6.83938
-6.88142
-6.92126
-6.9588
-6.99422
-7.02731
-7.05813
-7.0867
-6.41703
-6.42832
-6.45486
-6.49402
-6.53966
-6.58753
-6.63627
-6.68536
-6.73379
-6.78076
-6.8257
-6.86843
-6.90876
-6.9468
-6.98243
-7.01573
-7.04659
-7.07541
-6.37387
-6.38586
-6.41615
-6.46188
-6.51311
-6.56445
-6.61612
-6.66825
-6.71943
-6.76839
-6.81476
-6.85854
-6.89975
-6.93842
-6.97449
-7.008
-7.03902
-7.06789
-6.32629
-6.33758
-6.37236
-6.42809
-6.48698
-6.54228
-6.59712
-6.65249
-6.70646
-6.75762
-6.80579
-6.85108
-6.89357
-6.93317
-6.97
-7.00404
-7.03562
-7.06505
-6.27679
-6.28573
-6.32681
-6.39388
-6.45953
-6.51981
-6.58024
-6.64015
-6.69677
-6.74956
-6.79904
-6.84543
-6.88866
-6.92875
-6.96579
-7.00002
-7.03164
-7.061
-6.22532
-6.22648
-6.28914
-6.37033
-6.43327
-6.49319
-6.55988
-6.62654
-6.68774
-6.7438
-6.79604
-6.84471
-6.88962
-6.93084
-6.96863
-7.00335
-7.03538
-7.06547
-6.17884
-6.13022
-6.24579
-6.36687
-6.42881
-6.48062
-6.54437
-6.61014
-6.67072
-6.72681
-6.77974
-6.82942
-6.87539
-6.91766
-6.95645
-6.99214
-7.02503
-7.05548
-6.1958
-5.99764
-6.13058
-6.30822
-6.41296
-6.49274
-6.57122
-6.64252
-6.70444
-6.76023
-6.81187
-6.85953
-6.90304
-6.9427
-6.97887
-7.01202
-7.04279
-7.07245
-6.3366
-6.08898
-6.06528
-6.11988
-6.20216
-6.30985
-6.42007
-6.51662
-6.60015
-6.67505
-6.743
-6.80402
-6.85837
-6.90682
-6.95001
-6.98866
-7.02374
-7.05687
-6.06453
-6.69506
-6.81354
-6.67298
-6.58451
-6.59091
-6.63198
-6.67567
-6.71991
-6.76649
-6.81367
-6.85918
-6.90172
-6.94107
-6.97711
-7.00977
-7.03964
-7.06839
-3.01005
-4.77701
-5.78995
-6.0709
-6.19655
-6.33825
-6.46705
-6.56652
-6.64739
-6.71892
-6.78327
-6.84052
-6.89126
-6.93623
-6.97596
-7.01071
-7.04085
-7.06516
-8.16189
-8.16102
-8.16043
-8.16183
-8.16504
-8.16931
-8.17418
-8.1792
-8.18403
-8.18862
-8.19316
-8.19792
-8.20315
-8.20889
-8.21526
-8.22241
-8.23054
-8.23978
-8.25031
-8.26229
-8.27591
-8.29134
-8.30877
-8.32829
-8.35006
-8.37413
-8.40058
-8.42935
-8.46044
-8.49365
-8.52888
-8.56581
-8.60421
-8.64371
-8.68401
-8.72471
-8.76551
-8.80601
-8.84594
-8.88498
-8.92289
-8.95944
-8.99446
-9.02777
-9.05925
-9.08879
-9.11632
-9.14176
-9.16506
-9.1862
-9.20511
-9.22183
-9.2363
-9.24854
-9.25849
-9.26623
-9.27166
-9.27488
-9.27577
-9.27447
-9.27085
-9.26507
-9.25698
-9.24677
-9.23428
-9.21975
-9.20299
-9.18426
-9.16337
-9.14061
-9.11577
-9.08916
-9.06053
-9.03026
-8.99809
-8.96443
-8.92897
-8.89207
-8.85341
-8.81344
-8.77175
-8.72866
-8.68372
-8.63735
-8.58905
-8.53913
-8.48692
-8.43235
-8.37461
-8.31337
-8.24871
-8.18017
-8.10725
-8.02931
-7.94579
-7.85602
-7.7594
-7.65512
-7.54239
-7.42019
-7.28761
-7.14357
-6.98668
-6.81548
-6.62852
-6.42451
-6.20215
-5.96051
-5.6985
-5.41531
-5.10976
-4.78102
-4.42819
-4.05082
-3.64839
-3.22078
-2.76773
-2.28955
-1.7867
-1.26008
-0.710697
-0.139915
0.450681
1.05906
1.68287
2.31937
2.96558
3.61832
4.27426
4.92998
5.58202
6.227
6.86159
7.48267
8.08725
8.67266
9.23649
9.77664
10.2914
10.7795
11.2401
11.6727
12.0774
12.4547
12.8052
13.1303
13.431
13.7078
13.9614
14.1927
14.4029
14.5933
14.7654
14.9204
15.0597
15.1847
15.2965
15.3964
15.4855
15.5647
15.6351
15.6974
15.7526
15.8013
15.8442
15.882
15.9153
15.9446
15.9704
15.9933
16.014
16.033
16.0512
16.0697
16.0902
16.1154
16.1517
16.2063
16.3057
16.4393
-8.16445
-8.16319
-8.16288
-8.16544
-8.16912
-8.17255
-8.17547
-8.17794
-8.18001
-8.18177
-8.18341
-8.18517
-8.18729
-8.1901
-8.19383
-8.19854
-8.20427
-8.21108
-8.21912
-8.22857
-8.23968
-8.25265
-8.26772
-8.28508
-8.30491
-8.32728
-8.35232
-8.38001
-8.41032
-8.4431
-8.47816
-8.5152
-8.55392
-8.59392
-8.63484
-8.67622
-8.71771
-8.75891
-8.79948
-8.83911
-8.87754
-8.91455
-8.94995
-8.9836
-9.01535
-9.04514
-9.07287
-9.09849
-9.12196
-9.14323
-9.16229
-9.17912
-9.1937
-9.20603
-9.21607
-9.22386
-9.22936
-9.23259
-9.23351
-9.23217
-9.22853
-9.22265
-9.21447
-9.2041
-9.19146
-9.17669
-9.15971
-9.14066
-9.11948
-9.09632
-9.07113
-9.04408
-9.01509
-8.98434
-8.95179
-8.91763
-8.88176
-8.84435
-8.80534
-8.76492
-8.72293
-8.67954
-8.63455
-8.58813
-8.54
-8.49028
-8.43864
-8.38483
-8.3282
-8.26862
-8.20588
-8.13963
-8.06922
-7.99403
-7.91347
-7.82686
-7.73352
-7.63267
-7.52346
-7.40494
-7.27603
-7.13536
-6.98198
-6.81462
-6.63206
-6.43303
-6.21648
-5.9812
-5.72612
-5.45003
-5.152
-4.83113
-4.48663
-4.11784
-3.72422
-3.30533
-2.86121
-2.39205
-1.89819
-1.38033
-0.839508
-0.276971
0.305807
0.90694
1.52417
2.15485
2.79612
3.44484
4.09776
4.75148
5.40255
6.04755
6.68314
7.3061
7.91341
8.50227
9.0702
9.61502
10.1349
10.6286
11.095
11.5336
11.9444
12.3275
12.6836
13.0134
13.3183
13.5994
13.8574
14.0934
14.3084
14.5036
14.6805
14.8402
14.9841
15.1135
15.2296
15.3336
15.4265
15.5094
15.5833
15.6489
15.7072
15.7589
15.8045
15.8449
15.8806
15.9121
15.9401
15.965
15.9875
16.0084
16.0283
16.0485
16.0706
16.0973
16.1334
16.1839
16.2725
16.3828
-8.16106
-8.16069
-8.1611
-8.16373
-8.16691
-8.16921
-8.17038
-8.17063
-8.17021
-8.16931
-8.16825
-8.16738
-8.16704
-8.16745
-8.16877
-8.17106
-8.17446
-8.17913
-8.18531
-8.19323
-8.20316
-8.21533
-8.22994
-8.24716
-8.26716
-8.28998
-8.31563
-8.34398
-8.37491
-8.40815
-8.44345
-8.48045
-8.51882
-8.55818
-8.59821
-8.63853
-8.67884
-8.7188
-8.75814
-8.79659
-8.83392
-8.86994
-8.90446
-8.93734
-8.96845
-8.9977
-9.02498
-9.05025
-9.07343
-9.09449
-9.11338
-9.13008
-9.14457
-9.15683
-9.16683
-9.17458
-9.18004
-9.18324
-9.18413
-9.18275
-9.17907
-9.17311
-9.16486
-9.15436
-9.1416
-9.12664
-9.10949
-9.09021
-9.0688
-9.04536
-9.01991
-8.99253
-8.96326
-8.93219
-8.89937
-8.8649
-8.82878
-8.79112
-8.75192
-8.7113
-8.66923
-8.62575
-8.58085
-8.53455
-8.48674
-8.43742
-8.38641
-8.33342
-8.27804
-8.22001
-8.15927
-8.0954
-8.02773
-7.95576
-7.87878
-7.79622
-7.70723
-7.61111
-7.50686
-7.39352
-7.26998
-7.13502
-6.98757
-6.82642
-6.6505
-6.45851
-6.24946
-6.02208
-5.77537
-5.50798
-5.21904
-4.90753
-4.57275
-4.21384
-3.83031
-3.42165
-2.98797
-2.52925
-2.04584
-1.53834
-1.00773
-0.455116
0.118087
0.710127
1.31885
1.94173
2.57602
3.21868
3.86651
4.51616
5.16425
5.80733
6.44206
7.06518
7.67363
8.26456
8.83547
9.38415
9.90878
10.408
10.8808
11.3267
11.7454
12.1372
12.5023
12.8416
13.156
13.4463
13.7133
13.9579
14.1812
14.3845
14.569
14.736
14.8868
15.0226
15.1448
15.2545
15.3528
15.4407
15.5192
15.5892
15.6515
15.7068
15.756
15.7996
15.8383
15.8726
15.9031
15.9305
15.9553
15.9782
16.0001
16.0221
16.0458
16.0734
16.1091
16.1555
16.2302
16.3051
-8.14986
-8.15215
-8.1549
-8.15837
-8.16153
-8.16352
-8.16426
-8.164
-8.16301
-8.1615
-8.15974
-8.15804
-8.1567
-8.15598
-8.15614
-8.1574
-8.16001
-8.16418
-8.17015
-8.17812
-8.1883
-8.20084
-8.21589
-8.23354
-8.25386
-8.27684
-8.30247
-8.33063
-8.36117
-8.39386
-8.42844
-8.46461
-8.50205
-8.54043
-8.57943
-8.6187
-8.65795
-8.69685
-8.73514
-8.77257
-8.80892
-8.84399
-8.87762
-8.90966
-8.93999
-8.96851
-8.99512
-9.01977
-9.04239
-9.06293
-9.08135
-9.09762
-9.1117
-9.12358
-9.13323
-9.14065
-9.14579
-9.14868
-9.14928
-9.1476
-9.14362
-9.13736
-9.12881
-9.118
-9.10493
-9.08965
-9.07217
-9.05254
-9.0308
-9.00702
-8.98123
-8.95353
-8.92396
-8.89262
-8.85957
-8.82491
-8.78867
-8.75095
-8.71179
-8.67126
-8.62938
-8.58619
-8.54168
-8.49587
-8.44868
-8.40007
-8.34993
-8.29798
-8.24384
-8.18745
-8.12855
-8.06673
-8.00148
-7.9322
-7.85833
-7.77916
-7.69396
-7.60188
-7.50199
-7.39329
-7.27465
-7.14491
-7.00289
-6.84747
-6.67747
-6.49176
-6.28919
-6.06862
-5.82886
-5.56873
-5.28718
-4.98326
-4.65614
-4.30505
-3.92941
-3.52883
-3.10319
-2.65247
-2.17696
-1.67727
-1.15427
-0.60901
-0.0428626
0.542471
1.14491
1.76203
2.39115
3.02929
3.67333
4.31993
4.96573
5.6073
6.24127
6.86435
7.47349
8.0658
8.6388
9.19031
9.71855
10.2222
10.7003
11.1522
11.5775
11.9764
12.349
12.6958
13.0177
13.3154
13.5895
13.8411
14.0712
14.2811
14.4718
14.6448
14.8014
14.9427
15.0701
15.1846
15.2874
15.3796
15.462
15.5357
15.6014
15.66
15.7121
15.7585
15.7997
15.8364
15.8691
15.8985
15.9252
15.9497
15.9731
15.9963
16.0207
16.0482
16.0819
16.1223
16.1812
16.2249
-8.13056
-8.13577
-8.14247
-8.1484
-8.15284
-8.15564
-8.15694
-8.15704
-8.15628
-8.15492
-8.15326
-8.15159
-8.15026
-8.14954
-8.14977
-8.15119
-8.15409
-8.15868
-8.16519
-8.17379
-8.18466
-8.19795
-8.21377
-8.23218
-8.25321
-8.27682
-8.30293
-8.33139
-8.36202
-8.39458
-8.42882
-8.46444
-8.50117
-8.53867
-8.57665
-8.6148
-8.65285
-8.69052
-8.72757
-8.76377
-8.79891
-8.83283
-8.86535
-8.89635
-8.92569
-8.95329
-8.97905
-9.0029
-9.02477
-9.04462
-9.06238
-9.07804
-9.09154
-9.10287
-9.11198
-9.11887
-9.1235
-9.12588
-9.12596
-9.12377
-9.11927
-9.11249
-9.10341
-9.09206
-9.07844
-9.0626
-9.04455
-9.02436
-9.00205
-8.97771
-8.95139
-8.92317
-8.89313
-8.86136
-8.82795
-8.793
-8.75658
-8.71877
-8.67966
-8.6393
-8.59775
-8.55505
-8.51119
-8.46619
-8.41999
-8.37253
-8.3237
-8.27326
-8.22098
-8.1665
-8.10993
-8.05059
-7.98811
-7.92183
-7.8513
-7.77571
-7.69443
-7.60651
-7.51108
-7.4071
-7.29344
-7.16898
-7.03239
-6.88265
-6.71841
-6.53873
-6.34219
-6.12784
-5.89425
-5.64046
-5.36516
-5.06756
-4.74664
-4.40185
-4.03239
-3.63797
-3.21824
-2.77326
-2.30321
-1.80874
-1.2906
-0.749855
-0.187811
0.393812
0.992976
1.60731
2.23414
2.87055
3.51337
4.15934
4.805
5.44697
6.08179
6.70624
7.31714
7.9117
8.4874
9.04211
9.57407
10.0819
10.5646
11.0214
11.4519
11.856
12.234
12.5862
12.9134
13.2161
13.4953
13.7518
13.9867
14.2011
14.3964
14.5738
14.7345
14.8799
15.0111
15.1293
15.2356
15.331
15.4165
15.493
15.5614
15.6224
15.6767
15.7251
15.7683
15.8067
15.8411
15.872
15.8999
15.9256
15.9498
15.9734
15.9976
16.0238
16.0542
16.0877
16.1321
16.1507
-8.10596
-8.11402
-8.12569
-8.13488
-8.14125
-8.14553
-8.14805
-8.14915
-8.14925
-8.14866
-8.14771
-8.14672
-8.14605
-8.14602
-8.14698
-8.1492
-8.15297
-8.15852
-8.16607
-8.17577
-8.18779
-8.20222
-8.21914
-8.23856
-8.26049
-8.28483
-8.31149
-8.34028
-8.37102
-8.40345
-8.43734
-8.4724
-8.50838
-8.54497
-8.58193
-8.61896
-8.65584
-8.69229
-8.72812
-8.7631
-8.79705
-8.82981
-8.86122
-8.89115
-8.91949
-8.94613
-8.97098
-8.99398
-9.01504
-9.03413
-9.05116
-9.06612
-9.07894
-9.08961
-9.09808
-9.10433
-9.10832
-9.11005
-9.10948
-9.10662
-9.10145
-9.09396
-9.08417
-9.07209
-9.05773
-9.04113
-9.02232
-9.00136
-8.9783
-8.9532
-8.92615
-8.89724
-8.86655
-8.83419
-8.80027
-8.76489
-8.72816
-8.69017
-8.65103
-8.61082
-8.56959
-8.52741
-8.48429
-8.44024
-8.39523
-8.34919
-8.30202
-8.25355
-8.20333
-8.15152
-8.09759
-8.04131
-7.98207
-7.91938
-7.85263
-7.78116
-7.70418
-7.62087
-7.53027
-7.43136
-7.32303
-7.20404
-7.07319
-6.92922
-6.77102
-6.59735
-6.40699
-6.19868
-5.97119
-5.72335
-5.45405
-5.16231
-4.84722
-4.50802
-4.14404
-3.7548
-3.33998
-2.89956
-2.43377
-1.94313
-1.42836
-0.890488
-0.330826
0.248916
0.846712
1.46019
2.0867
2.72329
3.3668
4.01392
4.66118
5.30515
5.94236
6.56954
7.18355
7.78155
8.36105
8.91987
9.4562
9.96858
10.4559
10.9174
11.3525
11.7613
12.1438
12.5003
12.8316
13.1383
13.4213
13.6815
13.92
14.1379
14.3366
14.5173
14.6812
14.8296
14.9638
15.0848
15.1938
15.2917
15.3796
15.4584
15.5289
15.5919
15.6481
15.6981
15.7427
15.7825
15.8181
15.85
15.8788
15.9051
15.9296
15.953
15.9764
16.0005
16.0268
16.0531
16.085
16.0835
-8.08001
-8.09066
-8.10734
-8.11984
-8.12837
-8.13446
-8.13857
-8.14108
-8.14245
-8.14306
-8.14329
-8.14347
-8.14398
-8.14514
-8.14731
-8.15076
-8.1558
-8.16264
-8.1715
-8.18252
-8.19583
-8.21149
-8.22954
-8.24997
-8.27272
-8.29769
-8.32477
-8.35377
-8.3845
-8.41673
-8.45024
-8.48475
-8.52003
-8.55581
-8.59184
-8.62788
-8.6637
-8.69906
-8.73377
-8.76763
-8.80048
-8.83215
-8.86251
-8.89142
-8.91878
-8.94448
-8.96844
-8.99058
-9.01082
-9.02911
-9.04538
-9.05959
-9.07168
-9.08162
-9.08936
-9.09488
-9.09813
-9.09911
-9.09776
-9.0941
-9.08809
-9.07976
-9.06908
-9.0561
-9.04081
-9.02327
-9.00351
-8.98159
-8.95757
-8.93155
-8.90359
-8.87382
-8.84232
-8.80923
-8.77467
-8.73875
-8.70161
-8.66337
-8.62413
-8.58401
-8.54309
-8.50144
-8.45911
-8.41609
-8.37238
-8.32793
-8.28264
-8.23628
-8.18868
-8.13955
-8.0888
-8.03596
-7.98039
-7.9217
-7.85918
-7.79223
-7.71999
-7.64166
-7.55628
-7.46275
-7.36001
-7.24671
-7.12177
-6.98375
-6.83167
-6.66406
-6.47984
-6.27751
-6.05605
-5.81403
-5.55057
-5.26444
-4.95488
-4.62084
-4.2618
-3.87711
-3.46658
-3.03002
-2.56771
-2.08002
-1.5677
-1.03168
-0.47334
0.105644
0.703234
1.31705
1.94443
2.58238
3.22776
3.87713
4.52709
5.17408
5.8147
6.44558
7.06363
7.66596
8.25001
8.81354
9.35466
9.87185
10.3639
10.83
11.2697
11.6828
12.0693
12.4298
12.7647
13.0748
13.3609
13.6242
13.8656
14.0863
14.2877
14.471
14.6374
14.7883
14.9247
15.048
15.1591
15.2591
15.349
15.4297
15.5019
15.5666
15.6243
15.6757
15.7216
15.7625
15.7989
15.8316
15.8609
15.8875
15.9119
15.9348
15.9568
15.9783
16.0002
16.0194
16.0405
16.0227
-8.0563
-8.06893
-8.08992
-8.10533
-8.11586
-8.12377
-8.12959
-8.13364
-8.13646
-8.13847
-8.1401
-8.14169
-8.14361
-8.1462
-8.1498
-8.15469
-8.16114
-8.16937
-8.17958
-8.19189
-8.20643
-8.2232
-8.24226
-8.26353
-8.28698
-8.31248
-8.33989
-8.36903
-8.39973
-8.43175
-8.46489
-8.49889
-8.53354
-8.56858
-8.60379
-8.63893
-8.6738
-8.70818
-8.7419
-8.77477
-8.80663
-8.83732
-8.86673
-8.89471
-8.92118
-8.94602
-8.96915
-8.99048
-9.00994
-9.02747
-9.04299
-9.05645
-9.0678
-9.077
-9.08398
-9.08871
-9.09116
-9.09129
-9.08907
-9.0845
-9.07754
-9.06822
-9.05651
-9.04246
-9.02607
-9.00741
-8.98651
-8.96345
-8.9383
-8.91115
-8.88212
-8.85131
-8.81886
-8.7849
-8.74957
-8.71302
-8.6754
-8.63684
-8.59748
-8.55746
-8.51687
-8.4758
-8.43431
-8.39244
-8.35017
-8.30747
-8.26425
-8.22033
-8.17541
-8.12949
-8.08219
-8.03305
-7.98158
-7.92721
-7.86935
-7.80727
-7.74017
-7.66719
-7.58734
-7.49955
-7.4026
-7.2953
-7.17634
-7.04452
-6.89851
-6.73706
-6.55884
-6.36258
-6.14699
-5.91081
-5.6529
-5.3722
-5.0677
-4.73849
-4.38386
-4.00327
-3.59641
-3.16313
-2.70358
-2.21812
-1.70743
-1.17246
-0.614587
-0.035497
0.562755
1.17779
1.80689
2.44707
3.09509
3.74754
4.40093
5.05172
5.69646
6.33178
6.95449
7.56168
8.15069
8.71922
9.26531
9.78738
10.2842
10.7548
11.1988
11.616
12.0063
12.3702
12.7083
13.0214
13.3103
13.5762
13.82
14.0432
14.2468
14.4322
14.6007
14.7535
14.8919
15.017
15.1298
15.2315
15.323
15.4052
15.479
15.545
15.604
15.6567
15.7036
15.7454
15.7827
15.8159
15.8455
15.8721
15.8962
15.9181
15.9385
15.9572
15.9746
15.987
15.9987
15.9679
-8.03726
-8.05124
-8.07537
-8.09301
-8.10516
-8.11464
-8.12199
-8.1275
-8.13173
-8.13516
-8.13821
-8.14123
-8.14461
-8.14865
-8.1537
-8.15999
-8.16782
-8.17737
-8.18883
-8.20229
-8.21787
-8.23559
-8.25545
-8.27739
-8.30136
-8.32721
-8.35483
-8.38403
-8.41463
-8.44642
-8.47919
-8.51272
-8.54679
-8.58117
-8.61565
-8.65001
-8.68407
-8.71762
-8.75049
-8.7825
-8.81351
-8.84338
-8.87197
-8.89917
-8.92487
-8.94896
-8.97136
-8.99199
-9.01075
-9.02758
-9.0424
-9.05516
-9.06579
-9.07424
-9.08045
-9.08439
-9.08598
-9.08522
-9.08205
-9.07647
-9.06845
-9.05801
-9.04513
-9.02986
-9.01221
-8.99225
-8.97003
-8.94563
-8.91915
-8.8907
-8.8604
-8.82838
-8.7948
-8.75983
-8.72361
-8.68632
-8.64813
-8.6092
-8.5697
-8.52977
-8.48954
-8.44911
-8.40857
-8.36797
-8.3273
-8.28654
-8.24562
-8.20433
-8.16256
-8.11991
-8.07641
-8.03133
-7.98427
-7.93458
-7.88172
-7.82487
-7.76327
-7.69599
-7.622
-7.54026
-7.4494
-7.34834
-7.23557
-7.11005
-6.97021
-6.81501
-6.64286
-6.4527
-6.24291
-6.01247
-5.75993
-5.48442
-5.18466
-4.85992
-4.50928
-4.13234
-3.7286
-3.29803
-2.84059
-2.3567
-1.84693
-1.31233
-0.754218
-0.174333
0.425264
1.04218
1.67364
2.31667
2.96795
3.6241
4.28155
4.93679
5.58625
6.22654
6.85439
7.4668
8.06105
8.63475
9.1859
9.71281
10.2143
10.6893
11.1374
11.5583
11.9522
12.3193
12.6603
12.976
13.2673
13.5354
13.7814
14.0065
14.212
14.3992
14.5694
14.7239
14.8638
14.9904
15.1047
15.2078
15.3007
15.3842
15.4591
15.5263
15.5865
15.6402
15.6881
15.7307
15.7686
15.8022
15.832
15.8585
15.882
15.9029
15.9213
15.9371
15.9501
15.9562
15.9599
15.9183
-8.02438
-8.03911
-8.06488
-8.08385
-8.09711
-8.10773
-8.11629
-8.12301
-8.12846
-8.13315
-8.13749
-8.14184
-8.14656
-8.15194
-8.1583
-8.16587
-8.17492
-8.1856
-8.19811
-8.21252
-8.22895
-8.24737
-8.26782
-8.29022
-8.31451
-8.34056
-8.36824
-8.39737
-8.42779
-8.45929
-8.49169
-8.52476
-8.5583
-8.5921
-8.62596
-8.65966
-8.69304
-8.7259
-8.75808
-8.7894
-8.81973
-8.84893
-8.87687
-8.90343
-8.92851
-8.95199
-8.9738
-8.99382
-9.01199
-9.02821
-9.04241
-9.05453
-9.06448
-9.07222
-9.07766
-9.08077
-9.08149
-9.07977
-9.07558
-9.06891
-9.05972
-9.04803
-9.03383
-9.01718
-8.9981
-8.97665
-8.95291
-8.92699
-8.89898
-8.86903
-8.83727
-8.80387
-8.769
-8.73284
-8.69559
-8.65745
-8.6186
-8.57925
-8.53956
-8.49972
-8.45988
-8.42016
-8.38067
-8.34145
-8.30255
-8.26392
-8.22552
-8.18718
-8.14855
-8.10976
-8.07018
-8.02952
-7.98714
-7.9425
-7.89492
-7.84365
-7.78786
-7.7266
-7.65882
-7.58333
-7.49891
-7.40417
-7.29786
-7.17865
-7.04526
-6.89629
-6.73041
-6.54619
-6.34227
-6.11731
-5.87008
-5.59941
-5.30419
-4.9835
-4.63655
-4.26279
-3.8618
-3.4334
-2.97759
-2.49472
-1.9854
-1.45067
-0.891879
-0.310753
0.290628
0.909823
1.54409
2.19041
2.84548
3.50586
4.16797
4.82819
5.48289
6.12857
6.7619
7.37979
7.97944
8.5584
9.11459
9.6463
10.1522
10.6315
11.0834
11.5079
11.9049
12.2749
12.6185
12.9366
13.2301
13.5001
13.7479
13.9747
14.1818
14.3705
14.5422
14.6981
14.8394
14.9672
15.0828
15.1871
15.2811
15.3657
15.4417
15.51
15.571
15.6257
15.6744
15.7177
15.7561
15.7901
15.82
15.8463
15.8691
15.8887
15.9052
15.918
15.9267
15.9271
15.9238
15.8736
-8.01819
-8.03303
-8.05885
-8.0782
-8.092
-8.10326
-8.11258
-8.12018
-8.12657
-8.13226
-8.13767
-8.14312
-8.14897
-8.15547
-8.16293
-8.17156
-8.18159
-8.19318
-8.2065
-8.22162
-8.23864
-8.25755
-8.27836
-8.30101
-8.32543
-8.3515
-8.3791
-8.40805
-8.43822
-8.46939
-8.5014
-8.53404
-8.5671
-8.60038
-8.63371
-8.66687
-8.6997
-8.73201
-8.76365
-8.79445
-8.82427
-8.85297
-8.88042
-8.90651
-8.93112
-8.95415
-8.97549
-8.99505
-9.01274
-9.02845
-9.04212
-9.05365
-9.06297
-9.07001
-9.07469
-9.07696
-9.07675
-9.07403
-9.06873
-9.06085
-9.05036
-9.03728
-9.02162
-9.00341
-8.98269
-8.95957
-8.93412
-8.90646
-8.87672
-8.84505
-8.81164
-8.77666
-8.74032
-8.70283
-8.66442
-8.6253
-8.58571
-8.54586
-8.50596
-8.46622
-8.4268
-8.38785
-8.3495
-8.31181
-8.27482
-8.23852
-8.20285
-8.16759
-8.13264
-8.09764
-8.06244
-8.02646
-7.98905
-7.94971
-7.9077
-7.86228
-7.81258
-7.75756
-7.69623
-7.62718
-7.54931
-7.46104
-7.3613
-7.24853
-7.12164
-6.97893
-6.81924
-6.64087
-6.44268
-6.22303
-5.9809
-5.71484
-5.42393
-5.10703
-4.76353
-4.39268
-3.99416
-3.56761
-3.11316
-2.63102
-2.12195
-1.58691
-1.02724
-0.444653
0.158782
0.780604
1.41811
2.06819
2.72757
3.39267
4.0599
4.7255
5.38579
6.03714
6.67616
7.29968
7.90479
8.48901
9.05016
9.58655
10.0968
10.58
11.0356
11.4633
11.8632
12.2358
12.5817
12.9019
13.1972
13.469
13.7183
13.9466
14.1551
14.3451
14.5181
14.6752
14.8176
14.9466
15.0633
15.1687
15.2637
15.3493
15.4262
15.4953
15.5573
15.6127
15.6621
15.7061
15.745
15.7792
15.8091
15.835
15.8571
15.8755
15.8899
15.8999
15.9046
15.8997
15.8904
15.8331
-8.0183
-8.03261
-8.05713
-8.07599
-8.08975
-8.10112
-8.11073
-8.11879
-8.12578
-8.13215
-8.13833
-8.1446
-8.1513
-8.15865
-8.16694
-8.17636
-8.18712
-8.19936
-8.21324
-8.22882
-8.24619
-8.26535
-8.28631
-8.309
-8.33338
-8.35932
-8.38671
-8.41539
-8.44524
-8.47605
-8.50766
-8.53987
-8.57249
-8.60532
-8.63819
-8.67091
-8.70331
-8.73521
-8.76646
-8.79689
-8.82637
-8.85474
-8.88188
-8.90767
-8.93198
-8.95471
-8.97573
-8.99496
-9.01227
-9.02757
-9.04077
-9.05177
-9.06048
-9.06684
-9.07075
-9.07215
-9.07096
-9.06714
-9.06063
-9.05142
-9.03949
-9.02485
-9.00752
-8.98756
-8.96502
-8.94
-8.9126
-8.88298
-8.85128
-8.8177
-8.78241
-8.74566
-8.70767
-8.66869
-8.62897
-8.58877
-8.54835
-8.50795
-8.46782
-8.42817
-8.38922
-8.35111
-8.314
-8.27796
-8.24305
-8.20926
-8.17652
-8.14465
-8.1134
-8.08269
-8.05204
-8.02092
-7.98877
-7.95494
-7.91874
-7.87937
-7.83591
-7.78736
-7.73249
-7.67009
-7.59872
-7.51712
-7.4239
-7.31774
-7.19718
-7.0608
-6.90708
-6.73458
-6.54186
-6.3275
-6.09022
-5.82877
-5.54203
-5.22898
-4.88884
-4.52093
-4.12479
-3.7001
-3.24691
-2.76551
-2.25655
-1.72101
-1.1602
-0.575811
0.0300557
0.654961
1.29612
1.95042
2.61449
3.28471
3.95738
4.62864
5.2947
5.95187
6.59666
7.2258
7.83635
8.42571
8.9917
9.53254
10.0469
10.5338
10.9926
11.4233
11.8259
12.2008
12.5487
12.8707
13.1677
13.4409
13.6916
13.9211
14.1308
14.322
14.4961
14.6542
14.7978
14.9278
15.0455
15.1518
15.2478
15.3342
15.4121
15.482
15.5447
15.6009
15.651
15.6955
15.7348
15.7692
15.7991
15.8246
15.8459
15.863
15.8755
15.8826
15.8837
15.8741
15.8596
15.7965
-8.02376
-8.03696
-8.05925
-8.07687
-8.09002
-8.10098
-8.1104
-8.1185
-8.1257
-8.13241
-8.13901
-8.14578
-8.15301
-8.16092
-8.16975
-8.17968
-8.19089
-8.20352
-8.2177
-8.2335
-8.25099
-8.27018
-8.29109
-8.31366
-8.33783
-8.3635
-8.39058
-8.41892
-8.44839
-8.47881
-8.51002
-8.54181
-8.57403
-8.60647
-8.63897
-8.67133
-8.70341
-8.73502
-8.76601
-8.79622
-8.8255
-8.8537
-8.88069
-8.90632
-8.93049
-8.95305
-8.97388
-8.99288
-9.00992
-9.02489
-9.03768
-9.0482
-9.05632
-9.06198
-9.06508
-9.06555
-9.06328
-9.05825
-9.05038
-9.03968
-9.02611
-9.00972
-8.99052
-8.96856
-8.94393
-8.91676
-8.88716
-8.85532
-8.8214
-8.78562
-8.74823
-8.70947
-8.6696
-8.62893
-8.58773
-8.54631
-8.50494
-8.46391
-8.42349
-8.38393
-8.34545
-8.30824
-8.27246
-8.2382
-8.20551
-8.17441
-8.14478
-8.11648
-8.08933
-8.06294
-8.03714
-8.01117
-7.98449
-7.95642
-7.92624
-7.89315
-7.85611
-7.81416
-7.76593
-7.71028
-7.6456
-7.57079
-7.4842
-7.3847
-7.27054
-7.14049
-6.99279
-6.82621
-6.63902
-6.43004
-6.19769
-5.94092
-5.65836
-5.34918
-5.01238
-4.64737
-4.25348
-3.83053
-3.3784
-2.89749
-2.38835
-1.85197
-1.28965
-0.703096
-0.0944208
0.533941
1.1791
1.83794
2.50696
3.18253
3.86076
4.53778
5.20965
5.87262
6.52311
7.15776
7.77358
8.36789
8.93848
9.48353
10.0017
10.4919
10.9538
11.3871
11.7919
12.1689
12.5186
12.8421
13.1405
13.415
13.6669
13.8975
14.1083
14.3005
14.4755
14.6347
14.7792
14.9102
15.0288
15.136
15.2329
15.3202
15.3989
15.4696
15.5331
15.59
15.6407
15.6857
15.7254
15.7599
15.7897
15.8148
15.8354
15.8511
15.8618
15.8663
15.864
15.8503
15.8312
15.7633
-8.03333
-8.04502
-8.06447
-8.08029
-8.09231
-8.1024
-8.11119
-8.11891
-8.12593
-8.13261
-8.13928
-8.14621
-8.15364
-8.16178
-8.17085
-8.18098
-8.19237
-8.20512
-8.21935
-8.23512
-8.25252
-8.27154
-8.29222
-8.31449
-8.33833
-8.36364
-8.39032
-8.41825
-8.44729
-8.47727
-8.50804
-8.5394
-8.57123
-8.60333
-8.63553
-8.66764
-8.69951
-8.73094
-8.7618
-8.79191
-8.82112
-8.84928
-8.87624
-8.90185
-8.92598
-8.94847
-8.96921
-8.98805
-9.00487
-9.01953
-9.03192
-9.04192
-9.04941
-9.05428
-9.05644
-9.05579
-9.05227
-9.04582
-9.03638
-9.02394
-9.00848
-8.99004
-8.96864
-8.94437
-8.91731
-8.88763
-8.85547
-8.82104
-8.78455
-8.74626
-8.70643
-8.66536
-8.62337
-8.58078
-8.53791
-8.49511
-8.45267
-8.41095
-8.37021
-8.33076
-8.29282
-8.25662
-8.2223
-8.19
-8.15977
-8.13158
-8.10537
-8.08099
-8.05805
-8.03659
-8.01588
-7.99544
-7.97457
-7.95261
-7.92881
-7.90225
-7.87199
-7.83683
-7.79558
-7.7468
-7.68916
-7.62118
-7.54152
-7.44865
-7.34111
-7.21735
-7.07585
-6.91508
-6.73355
-6.52979
-6.3024
-6.05009
-5.77168
-5.46615
-5.13256
-4.77016
-4.37834
-3.95679
-3.50547
-3.0247
-2.51505
-1.97749
-1.41332
-0.82428
-0.212495
0.419527
1.06888
1.73236
2.4064
3.0873
3.77108
4.45373
5.13127
5.79985
6.45578
7.09565
7.71638
8.31528
8.89009
9.43895
9.96049
10.4537
10.9182
11.3537
11.7605
12.1392
12.4904
12.8153
13.1149
13.3904
13.6433
13.8749
14.0866
14.2798
14.4558
14.6158
14.7612
14.8931
15.0126
15.1208
15.2185
15.3068
15.3863
15.4578
15.5221
15.5797
15.631
15.6765
15.7165
15.7512
15.7809
15.8056
15.8253
15.8399
15.8487
15.8509
15.8455
15.8281
15.805
15.7334
-8.04576
-8.0557
-8.07197
-8.08557
-8.09605
-8.10487
-8.11262
-8.11957
-8.12601
-8.13227
-8.13865
-8.14537
-8.15266
-8.1607
-8.16968
-8.17972
-8.19099
-8.20358
-8.21761
-8.23312
-8.25021
-8.26887
-8.28913
-8.31095
-8.3343
-8.35909
-8.38525
-8.41265
-8.44117
-8.47065
-8.50096
-8.53192
-8.5634
-8.59518
-8.62713
-8.65904
-8.69076
-8.7221
-8.75291
-8.78301
-8.81225
-8.84044
-8.86745
-8.89309
-8.91723
-8.93969
-8.96034
-8.97902
-8.99558
-9.00988
-9.02179
-9.03117
-9.03788
-9.04181
-9.04284
-9.0409
-9.03588
-9.02774
-9.01642
-9.0019
-8.98417
-8.96328
-8.93929
-8.91229
-8.88241
-8.84983
-8.81473
-8.77734
-8.73793
-8.69679
-8.65424
-8.61062
-8.56629
-8.5216
-8.47695
-8.43268
-8.38916
-8.34675
-8.30578
-8.26654
-8.22932
-8.19432
-8.16174
-8.13169
-8.10421
-8.07927
-8.0569
-8.0367
-8.01868
-8.00227
-7.98716
-7.9726
-7.95792
-7.9424
-7.92528
-7.90554
-7.88227
-7.85411
-7.81997
-7.77823
-7.72769
-7.66661
-7.59384
-7.50757
-7.40658
-7.28902
-7.15361
-6.99853
-6.82249
-6.62376
-6.40112
-6.15306
-5.87857
-5.57642
-5.24577
-4.88565
-4.49558
-4.07511
-3.62431
-3.14337
-2.63295
-2.09398
-1.52783
-0.936234
-0.321347
0.314258
0.967696
1.63565
2.31458
3.00057
3.68962
4.37759
5.06042
5.73416
6.39502
7.03956
7.66464
8.26756
8.84599
9.39811
9.9225
10.4182
10.8848
11.3222
11.7306
12.1106
12.4631
12.789
13.0896
13.3662
13.62
13.8525
14.065
14.2591
14.436
14.597
14.7433
14.8761
14.9966
15.1057
15.2043
15.2935
15.3739
15.4463
15.5114
15.5697
15.6216
15.6676
15.7079
15.7428
15.7724
15.7967
15.8158
15.8292
15.8364
15.8364
15.8282
15.8076
15.781
15.7064
-8.06044
-8.06853
-8.08153
-8.09264
-8.10122
-8.10836
-8.11467
-8.12042
-8.12588
-8.13131
-8.13699
-8.14311
-8.14988
-8.15744
-8.16596
-8.17554
-8.18633
-8.19841
-8.21189
-8.2268
-8.24326
-8.26124
-8.28079
-8.30186
-8.32445
-8.34848
-8.3739
-8.40059
-8.42847
-8.45735
-8.48713
-8.51763
-8.54871
-8.58017
-8.61186
-8.64358
-8.67518
-8.70646
-8.73726
-8.76737
-8.79665
-8.82489
-8.85194
-8.8776
-8.90171
-8.92408
-8.94457
-8.96298
-8.97917
-8.99297
-9.00423
-9.01279
-9.01851
-9.02127
-9.02093
-9.01741
-9.01059
-9.00044
-8.98688
-8.96992
-8.94955
-8.92584
-8.89886
-8.86876
-8.83565
-8.79977
-8.76132
-8.72063
-8.67797
-8.63372
-8.58821
-8.54186
-8.49503
-8.44819
-8.40169
-8.35596
-8.31146
-8.26847
-8.22746
-8.18864
-8.15244
-8.11894
-8.08847
-8.061
-8.03668
-8.01555
-7.99732
-7.98197
-7.96903
-7.95828
-7.94911
-7.94079
-7.93263
-7.92388
-7.91366
-7.90102
-7.88481
-7.86388
-7.83682
-7.80228
-7.75866
-7.70456
-7.63841
-7.55875
-7.46398
-7.35258
-7.22292
-7.07343
-6.90252
-6.70869
-6.49045
-6.24648
-5.97557
-5.67658
-5.34851
-4.99047
-4.60185
-4.18232
-3.73186
-3.25073
-2.73958
-2.19936
-1.63143
-1.03753
-0.419831
0.219107