/*--------------------------------*- C++ -*----------------------------------*\
| =========                 |                                                 |
| \\      /  F ield         | OpenFOAM: The Open Source CFD Toolbox           |
|  \\    /   O peration     | Version:  v1712                                 |
|   \\  /    A nd           | Web:      www.OpenFOAM.com                      |
|    \\/     M anipulation  |                                                 |
\*---------------------------------------------------------------------------*/
FoamFile
{
    version     2.0;
    format      ascii;
    class       surfaceScalarField;
    location    "100";
    object      phi;
}
// * * * * * * * * * * * * * * * * * * * * * * * * * * * * * * * * * * * * * //

dimensions      [0 3 -1 0 0 0 0];
oriented        oriented;


internalField   nonuniform List<scalar> 
24170
(
3.11513e-06
7.3278e-08
3.01302e-06
1.02113e-07
2.91759e-06
9.5421e-08
2.82648e-06
9.11136e-08
2.74055e-06
8.5921e-08
2.66313e-06
7.74171e-08
2.59535e-06
6.77755e-08
2.53658e-06
5.87678e-08
2.48571e-06
5.08708e-08
2.44165e-06
4.40566e-08
2.40345e-06
3.81981e-08
2.37031e-06
3.31444e-08
2.34156e-06
2.87446e-08
2.31669e-06
2.48646e-08
2.29544e-06
2.12533e-08
2.27737e-06
1.80637e-08
2.26251e-06
1.4864e-08
1.12421e-08
2.25126e-06
3.46866e-06
2.18663e-08
3.48679e-06
8.39874e-08
3.49347e-06
8.87338e-08
3.49237e-06
9.22109e-08
3.48442e-06
9.38756e-08
3.47086e-06
9.09744e-08
3.453e-06
8.56364e-08
3.43204e-06
7.97214e-08
3.4091e-06
7.38122e-08
3.38509e-06
6.80623e-08
3.36073e-06
6.25632e-08
3.33651e-06
5.7359e-08
3.31283e-06
5.24262e-08
3.28995e-06
4.77398e-08
3.26809e-06
4.31168e-08
3.24748e-06
3.86729e-08
3.22882e-06
3.3515e-08
2.67426e-08
3.21332e-06
3.66802e-06
1.63677e-08
3.68033e-06
7.16762e-08
3.69005e-06
7.90107e-08
3.7001e-06
8.21576e-08
3.70925e-06
8.47222e-08
3.71639e-06
8.38306e-08
3.72142e-06
8.06089e-08
3.72453e-06
7.66016e-08
3.72598e-06
7.23616e-08
3.72601e-06
6.8027e-08
3.72489e-06
6.36871e-08
3.72284e-06
5.94054e-08
3.72008e-06
5.51866e-08
3.71681e-06
5.10071e-08
3.71318e-06
4.67432e-08
3.70955e-06
4.2305e-08
3.70592e-06
3.71428e-08
3.06483e-08
3.70201e-06
3.92496e-06
1.67998e-08
3.93558e-06
6.10506e-08
3.94317e-06
7.14229e-08
3.95023e-06
7.50971e-08
3.95696e-06
7.79912e-08
3.96281e-06
7.79794e-08
3.96784e-06
7.55774e-08
3.97225e-06
7.2192e-08
3.97613e-06
6.8477e-08
3.97955e-06
6.46109e-08
3.98255e-06
6.06797e-08
3.98521e-06
5.67442e-08
3.98759e-06
5.2812e-08
3.98974e-06
4.88516e-08
3.99173e-06
4.47563e-08
3.99364e-06
4.03956e-08
3.9953e-06
3.54777e-08
2.96536e-08
3.99629e-06
4.20773e-06
1.61993e-08
4.21611e-06
5.2664e-08
4.22231e-06
6.52206e-08
4.22784e-06
6.95706e-08
4.23333e-06
7.2495e-08
4.23842e-06
7.28869e-08
4.24302e-06
7.09745e-08
4.24723e-06
6.79795e-08
4.25113e-06
6.45827e-08
4.25475e-06
6.09885e-08
4.25814e-06
5.72845e-08
4.26135e-06
5.35308e-08
4.26442e-06
4.97405e-08
4.26739e-06
4.58839e-08
4.27027e-06
4.18754e-08
4.27306e-06
3.76059e-08
4.27562e-06
3.29137e-08
2.76303e-08
4.27764e-06
4.51043e-06
1.48588e-08
4.51715e-06
4.59381e-08
4.52289e-06
5.94813e-08
4.52807e-06
6.43948e-08
4.53326e-06
6.73033e-08
4.53818e-06
6.79626e-08
4.54269e-06
6.64678e-08
4.54683e-06
6.38354e-08
4.55069e-06
6.07247e-08
4.55431e-06
5.73618e-08
4.55775e-06
5.38436e-08
4.56105e-06
5.02344e-08
4.56423e-06
4.65561e-08
4.56733e-06
4.27876e-08
4.57033e-06
3.88688e-08
4.57322e-06
3.47229e-08
4.57586e-06
3.02689e-08
2.54524e-08
4.57804e-06
4.83415e-06
1.34249e-08
4.83994e-06
4.0153e-08
4.84561e-06
5.38096e-08
4.85077e-06
5.92297e-08
4.85589e-06
6.21844e-08
4.86078e-06
6.30639e-08
4.86531e-06
6.194e-08
4.8695e-06
5.96476e-08
4.87341e-06
5.68074e-08
4.87711e-06
5.3663e-08
4.88063e-06
5.03232e-08
4.884e-06
4.68574e-08
4.88726e-06
4.32976e-08
4.89041e-06
3.96349e-08
4.89345e-06
3.58348e-08
4.89631e-06
3.18528e-08
4.89892e-06
2.76645e-08
2.32816e-08
4.90109e-06
5.18096e-06
1.20427e-08
5.18609e-06
3.50301e-08
5.19165e-06
4.82452e-08
5.19683e-06
5.40485e-08
5.20195e-06
5.70667e-08
5.20689e-06
5.81143e-08
5.21152e-06
5.73115e-08
5.21583e-06
5.53359e-08
5.21988e-06
5.27578e-08
5.22371e-06
4.98319e-08
5.22736e-06
4.66772e-08
5.23085e-06
4.33684e-08
5.23419e-06
3.99474e-08
5.23741e-06
3.64193e-08
5.24047e-06
3.2773e-08
5.24333e-06
2.89928e-08
5.2459e-06
2.50897e-08
2.11048e-08
5.24808e-06
5.55268e-06
1.06972e-08
5.55724e-06
3.04739e-08
5.56259e-06
4.28908e-08
5.56776e-06
4.88781e-08
5.57289e-06
5.19294e-08
5.57792e-06
5.30864e-08
5.58268e-06
5.25512e-08
5.58715e-06
5.08668e-08
5.59136e-06
4.85427e-08
5.59535e-06
4.58377e-08
5.59915e-06
4.28782e-08
5.60277e-06
3.97443e-08
5.60623e-06
3.64863e-08
5.60953e-06
3.31241e-08
5.61263e-06
2.96655e-08
5.61551e-06
2.6118e-08
5.61808e-06
2.25122e-08
1.89016e-08
5.62029e-06
5.95108e-06
9.39454e-09
5.95514e-06
2.64081e-08
5.96024e-06
3.77984e-08
5.96536e-06
4.37534e-08
5.9705e-06
4.67878e-08
5.97559e-06
4.79997e-08
5.98046e-06
4.76741e-08
5.98508e-06
4.62477e-08
5.98946e-06
4.41633e-08
5.99362e-06
4.1677e-08
5.99758e-06
3.89207e-08
6.00134e-06
3.59781e-08
6.00492e-06
3.29063e-08
6.0083e-06
2.97383e-08
6.01147e-06
2.64966e-08
6.01439e-06
2.32049e-08
6.01699e-06
1.99034e-08
1.66486e-08
6.01925e-06
6.37805e-06
8.15556e-09
6.38171e-06
2.27484e-08
6.38653e-06
3.2977e-08
6.39158e-06
3.87011e-08
6.3967e-06
4.16602e-08
6.40182e-06
4.28796e-08
6.40679e-06
4.27056e-08
6.41154e-06
4.14985e-08
6.41606e-06
3.96361e-08
6.42038e-06
3.73631e-08
6.42448e-06
3.48144e-08
6.42838e-06
3.20762e-08
6.43208e-06
2.92108e-08
6.43555e-06
2.62601e-08
6.43879e-06
2.32582e-08
6.44176e-06
2.02379e-08
6.44442e-06
1.7243e-08
1.43265e-08
6.44674e-06
5.74183e-06
7.16025e-09
5.74465e-06
1.9926e-08
5.74851e-06
2.91126e-08
5.75271e-06
3.45034e-08
5.75702e-06
3.73496e-08
5.76135e-06
3.85443e-08
5.7656e-06
3.84557e-08
5.7697e-06
3.74027e-08
5.77362e-06
3.57129e-08
5.77737e-06
3.36152e-08
5.78093e-06
3.12438e-08
5.78432e-06
2.86865e-08
5.78753e-06
2.6007e-08
5.79053e-06
2.32547e-08
5.79332e-06
2.04671e-08
5.79587e-06
1.76837e-08
5.79817e-06
1.49457e-08
1.23044e-08
5.80019e-06
6.99922e-06
6.09345e-09
7.00222e-06
1.69253e-08
7.00642e-06
2.4916e-08
7.0111e-06
2.9813e-08
7.016e-06
3.24553e-08
7.02096e-06
3.35774e-08
7.02587e-06
3.35446e-08
7.03064e-06
3.26354e-08
7.03523e-06
3.11251e-08
7.03962e-06
2.92213e-08
7.04381e-06
2.70544e-08
7.04778e-06
2.47109e-08
7.05153e-06
2.22568e-08
7.05504e-06
1.97424e-08
7.05829e-06
1.72117e-08
7.06127e-06
1.47029e-08
7.06396e-06
1.22573e-08
9.9162e-09
7.06635e-06
8.53198e-06
4.96341e-09
8.53512e-06
1.37755e-08
8.53962e-06
2.04186e-08
8.54479e-06
2.46414e-08
8.55028e-06
2.6964e-08
8.55591e-06
2.79466e-08
8.56153e-06
2.79256e-08
8.56702e-06
2.7138e-08
8.57234e-06
2.58082e-08
8.57744e-06
2.41146e-08
8.58231e-06
2.21804e-08
8.58694e-06
2.0087e-08
8.59129e-06
1.78994e-08
8.59537e-06
1.56677e-08
8.59914e-06
1.3436e-08
8.6026e-06
1.12419e-08
8.60573e-06
9.12064e-09
7.10709e-09
8.60854e-06
1.04004e-05
3.78213e-09
1.04037e-05
1.05e-08
1.04084e-05
1.56483e-08
1.04141e-05
1.90072e-08
1.04202e-05
2.08694e-08
1.04265e-05
2.16275e-08
1.04328e-05
2.15578e-08
1.04391e-05
2.08581e-08
1.04452e-05
1.96999e-08
1.04511e-05
1.82307e-08
1.04567e-05
1.65544e-08
1.04621e-05
1.47492e-08
1.04671e-05
1.28697e-08
1.04718e-05
1.09663e-08
1.04762e-05
9.0758e-09
1.04802e-05
7.23489e-09
1.04838e-05
5.47011e-09
3.80905e-09
1.04871e-05
1.2678e-05
2.55735e-09
1.26814e-05
7.10046e-09
1.26864e-05
1.06126e-08
1.26925e-05
1.2917e-08
1.26992e-05
1.41612e-08
1.27063e-05
1.45877e-08
1.27134e-05
1.43978e-08
1.27205e-05
1.37389e-08
1.27275e-05
1.27365e-08
1.27342e-05
1.14965e-08
1.27407e-05
1.01039e-08
1.27468e-05
8.61899e-09
1.27526e-05
7.09093e-09
1.2758e-05
5.55647e-09
1.2763e-05
4.05014e-09
1.27677e-05
2.59716e-09
1.27719e-05
1.22145e-09
-6.26684e-11
1.27758e-05
1.54545e-05
1.2825e-09
1.5458e-05
3.53895e-09
1.54634e-05
5.26458e-09
1.54699e-05
6.32672e-09
1.54773e-05
6.78318e-09
1.54852e-05
6.75753e-09
1.54932e-05
6.36459e-09
1.55012e-05
5.69437e-09
1.55091e-05
4.82271e-09
1.55168e-05
3.81492e-09
1.55242e-05
2.72461e-09
1.55312e-05
1.5934e-09
1.55379e-05
4.53301e-10
1.55441e-05
-6.69773e-10
1.55499e-05
-1.75415e-09
1.55553e-05
-2.78174e-09
1.55602e-05
-3.73844e-09
-4.61597e-09
1.55648e-05
1.8839e-05
-7.94447e-11
1.88428e-05
-3.00243e-10
1.88487e-05
-5.5982e-10
1.88559e-05
-9.44672e-10
1.88642e-05
-1.45124e-09
1.8873e-05
-2.05499e-09
1.88821e-05
-2.73322e-09
1.88912e-05
-3.46368e-09
1.89003e-05
-4.22413e-09
1.89091e-05
-4.99451e-09
1.89176e-05
-5.75846e-09
1.89257e-05
-6.50158e-09
1.89333e-05
-7.2124e-09
1.89405e-05
-7.88113e-09
1.89473e-05
-8.49996e-09
1.89535e-05
-9.0619e-09
1.89594e-05
-9.5617e-09
-9.99842e-09
1.89647e-05
2.29649e-05
-1.62678e-09
2.29693e-05
-4.69957e-09
2.2976e-05
-7.27926e-09
2.29844e-05
-9.38112e-09
2.2994e-05
-1.10345e-08
2.30043e-05
-1.23311e-08
2.30149e-05
-1.3359e-08
2.30256e-05
-1.41755e-08
2.30362e-05
-1.48142e-08
2.30465e-05
-1.53127e-08
2.30565e-05
-1.56985e-08
2.3066e-05
-1.59956e-08
2.3075e-05
-1.62149e-08
2.30834e-05
-1.63685e-08
2.30914e-05
-1.64615e-08
2.30988e-05
-1.6502e-08
2.31058e-05
-1.6492e-08
-1.64397e-08
2.31122e-05
1.68119e-05
-2.82e-09
1.68153e-05
-8.06717e-09
1.68204e-05
-1.24404e-08
1.68269e-05
-1.58223e-08
1.68341e-05
-1.82703e-08
1.68418e-05
-2.00179e-08
1.68497e-05
-2.12639e-08
1.68576e-05
-2.21045e-08
1.68654e-05
-2.26218e-08
1.6873e-05
-2.28889e-08
1.68803e-05
-2.29766e-08
1.68872e-05
-2.29265e-08
1.68938e-05
-2.27757e-08
1.68999e-05
-2.25435e-08
1.69057e-05
-2.22528e-08
1.69111e-05
-2.19128e-08
1.69162e-05
-2.15373e-08
-2.11313e-08
1.69209e-05
1.46357e-05
-3.94285e-09
1.46389e-05
-1.12898e-08
1.46439e-05
-1.74201e-08
1.465e-05
-2.19419e-08
1.46567e-05
-2.50087e-08
1.46638e-05
-2.70968e-08
1.4671e-05
-2.84804e-08
1.46782e-05
-2.92832e-08
1.46852e-05
-2.96284e-08
1.4692e-05
-2.9649e-08
1.46984e-05
-2.94373e-08
1.47046e-05
-2.90594e-08
1.47104e-05
-2.85599e-08
1.47158e-05
-2.79773e-08
1.47209e-05
-2.73375e-08
1.47256e-05
-2.66619e-08
1.473e-05
-2.59624e-08
-2.52524e-08
1.47342e-05
1.27411e-05
-4.95705e-09
1.27443e-05
-1.44935e-08
1.27494e-05
-2.24776e-08
1.27554e-05
-2.79114e-08
1.27617e-05
-3.13771e-08
1.27684e-05
-3.37223e-08
1.27751e-05
-3.51929e-08
1.27817e-05
-3.58893e-08
1.27881e-05
-3.60132e-08
1.27942e-05
-3.57551e-08
1.28e-05
-3.5234e-08
1.28054e-05
-3.45272e-08
1.28106e-05
-3.36923e-08
1.28154e-05
-3.27788e-08
1.28198e-05
-3.18173e-08
1.2824e-05
-3.08344e-08
1.28279e-05
-2.98411e-08
-2.88506e-08
1.28315e-05
1.10917e-05
-5.72914e-09
1.10949e-05
-1.77234e-08
1.11003e-05
-2.78235e-08
1.11062e-05
-3.3825e-08
1.11122e-05
-3.74375e-08
1.11185e-05
-3.99546e-08
1.11247e-05
-4.14366e-08
1.11308e-05
-4.19679e-08
1.11366e-05
-4.18437e-08
1.11422e-05
-4.13005e-08
1.11474e-05
-4.04686e-08
1.11523e-05
-3.94358e-08
1.11569e-05
-3.82778e-08
1.11612e-05
-3.70483e-08
1.11651e-05
-3.57905e-08
1.11688e-05
-3.45261e-08
1.11723e-05
-3.32768e-08
-3.20523e-08
1.11755e-05
9.65563e-06
-6.14573e-09
9.659e-06
-2.10933e-08
9.66454e-06
-3.33695e-08
9.67027e-06
-3.95537e-08
9.6761e-06
-4.32729e-08
9.68206e-06
-4.59157e-08
9.6879e-06
-4.72733e-08
9.69348e-06
-4.7545e-08
9.69877e-06
-4.71436e-08
9.70379e-06
-4.63162e-08
9.7085e-06
-4.51837e-08
9.71291e-06
-4.38437e-08
9.71702e-06
-4.23819e-08
9.72083e-06
-4.08648e-08
9.72437e-06
-3.93332e-08
9.72766e-06
-3.78154e-08
9.73071e-06
-3.63234e-08
-3.48538e-08
9.73351e-06
8.40494e-06
-5.72888e-09
8.40928e-06
-2.54418e-08
8.41466e-06
-3.8745e-08
8.41971e-06
-4.46061e-08
8.42521e-06
-4.87746e-08
8.43099e-06
-5.16972e-08
8.43661e-06
-5.28985e-08
8.44193e-06
-5.28679e-08
8.44695e-06
-5.21592e-08
8.45165e-06
-5.10217e-08
8.45604e-06
-4.95713e-08
8.46011e-06
-4.79172e-08
8.46388e-06
-4.61552e-08
8.46737e-06
-4.43566e-08
8.4706e-06
-4.25656e-08
8.4736e-06
-4.08119e-08
8.4764e-06
-3.91191e-08
-3.7501e-08
8.47904e-06
7.31364e-06
-2.08324e-09
7.32067e-06
-3.24773e-08
7.32644e-06
-4.45099e-08
7.33119e-06
-4.93648e-08
7.33651e-06
-5.40917e-08
7.3421e-06
-5.72869e-08
7.34755e-06
-5.83509e-08
7.35276e-06
-5.80862e-08
7.35772e-06
-5.71187e-08
7.36238e-06
-5.56804e-08
7.36671e-06
-5.39065e-08
7.37072e-06
-5.19242e-08
7.37441e-06
-4.985e-08
7.37781e-06
-4.7757e-08
7.38094e-06
-4.56949e-08
7.38382e-06
-4.36945e-08
7.38647e-06
-4.17663e-08
-3.98619e-08
7.38883e-06
6.36046e-06
7.52076e-09
6.37027e-06
-4.22842e-08
6.37812e-06
-5.23626e-08
6.38514e-06
-5.63851e-08
6.3922e-06
-6.11607e-08
6.39875e-06
-6.38386e-08
6.40467e-06
-6.42688e-08
6.41014e-06
-6.35549e-08
6.41525e-06
-6.22315e-08
6.42e-06
-6.04339e-08
6.42438e-06
-5.82852e-08
6.42838e-06
-5.59314e-08
6.43203e-06
-5.34981e-08
6.43533e-06
-5.10625e-08
6.43832e-06
-4.86817e-08
6.44102e-06
-4.63976e-08
6.4435e-06
-4.42422e-08
-4.22411e-08
6.44588e-06
5.53916e-06
1.38199e-08
5.5475e-06
-5.06192e-08
5.55581e-06
-6.06789e-08
5.56603e-06
-6.66045e-08
5.57719e-06
-7.23189e-08
5.58763e-06
-7.42851e-08
5.59679e-06
-7.34295e-08
5.60468e-06
-7.14494e-08
5.61138e-06
-6.89304e-08
5.61696e-06
-6.60116e-08
5.62149e-06
-6.28171e-08
5.62506e-06
-5.95028e-08
5.62776e-06
-5.62039e-08
5.62969e-06
-5.29936e-08
5.63093e-06
-4.99238e-08
5.63159e-06
-4.7064e-08
5.63177e-06
-4.44223e-08
-4.20971e-08
5.63163e-06
4.87157e-06
-3.01458e-08
4.88647e-06
-6.55179e-08
4.89719e-06
-7.14057e-08
4.90595e-06
-7.53589e-08
4.91296e-06
-7.93351e-08
4.9172e-06
-7.85267e-08
4.91798e-06
-7.42143e-08
4.91519e-06
-6.8659e-08
4.90913e-06
-6.28777e-08
4.90033e-06
-5.72105e-08
4.88934e-06
-5.18297e-08
4.87667e-06
-4.68356e-08
4.86277e-06
-4.23085e-08
4.84802e-06
-3.82403e-08
4.83271e-06
-3.46169e-08
4.8171e-06
-3.14607e-08
4.80147e-06
-2.87869e-08
-2.70942e-08
4.78647e-06
4.17253e-06
4.10701e-06
4.03561e-06
3.96025e-06
3.88091e-06
3.80238e-06
3.72817e-06
3.65951e-06
3.59663e-06
3.53942e-06
3.48759e-06
3.44076e-06
3.39845e-06
3.36021e-06
3.32559e-06
3.29413e-06
3.26534e-06
3.23825e-06
1.46877e-08
-1.48108e-08
4.08117e-08
-2.62607e-08
6.78535e-08
-2.71933e-08
9.17508e-08
-2.39965e-08
1.10293e-07
-1.86797e-08
1.226e-07
-1.23993e-08
1.28214e-07
-5.75789e-09
1.27216e-07
9.0499e-10
1.19853e-07
7.21287e-09
1.06997e-07
1.27624e-08
8.94439e-08
1.73948e-08
6.82407e-08
2.11063e-08
4.40675e-08
2.40031e-08
1.76906e-08
2.62723e-08
-1.05876e-08
2.80939e-08
-4.07723e-08
3.00832e-08
-7.34033e-08
3.246e-08
-1.08404e-07
3.49181e-08
-1.46133e-07
3.75825e-08
-1.86664e-07
4.0468e-08
-2.30311e-07
4.35178e-08
-2.77006e-07
4.6648e-08
-3.26881e-07
4.97631e-08
-3.79703e-07
5.27862e-08
-4.35432e-07
5.56253e-08
-4.93661e-07
5.81927e-08
-5.5418e-07
6.04117e-08
-6.16453e-07
6.22323e-08
-6.80169e-07
6.36107e-08
-7.44742e-07
6.45263e-08
-8.09826e-07
6.49733e-08
-8.74857e-07
6.49789e-08
-9.39543e-07
6.45775e-08
-1.00343e-06
6.38241e-08
-1.06631e-06
6.27699e-08
-1.12785e-06
6.14779e-08
-1.18795e-06
5.99994e-08
-1.2464e-06
5.83928e-08
-1.3032e-06
5.67014e-08
-1.35822e-06
5.49727e-08
-1.41155e-06
5.3236e-08
-1.46311e-06
5.15244e-08
-1.51305e-06
4.98537e-08
-1.56133e-06
4.82451e-08
-1.60811e-06
4.67036e-08
-1.6534e-06
4.52416e-08
-1.69733e-06
4.3857e-08
-1.73993e-06
4.25567e-08
-1.78133e-06
4.13343e-08
-1.82157e-06
4.01925e-08
-1.86076e-06
3.91213e-08
-1.89893e-06
3.81215e-08
-1.93618e-06
3.7183e-08
-1.97255e-06
3.63064e-08
-2.00811e-06
3.54814e-08
-2.04289e-06
3.47095e-08
-2.07696e-06
3.39815e-08
-2.11034e-06
3.32995e-08
-2.14309e-06
3.26551e-08
-2.17523e-06
3.2051e-08
-2.20681e-06
3.14802e-08
-2.23785e-06
3.09459e-08
-2.26839e-06
3.04428e-08
-2.29847e-06
2.9974e-08
-2.3281e-06
2.95353e-08
-2.35734e-06
2.91299e-08
-2.38618e-06
2.87552e-08
-2.4147e-06
2.84141e-08
-2.44288e-06
2.81058e-08
-2.47082e-06
2.78326e-08
-2.49848e-06
2.75955e-08
-2.52598e-06
2.73954e-08
-2.55327e-06
2.7234e-08
-2.58048e-06
2.71087e-08
-2.60757e-06
2.70222e-08
-2.63466e-06
2.69696e-08
-2.66169e-06
2.69547e-08
-2.68879e-06
2.69729e-08
-2.71589e-06
2.70265e-08
-2.74312e-06
2.71024e-08
-2.7704e-06
2.7205e-08
-2.79786e-06
2.73215e-08
-2.82537e-06
2.74541e-08
-2.85308e-06
2.75871e-08
-2.88088e-06
2.77411e-08
-2.90887e-06
2.78877e-08
-2.93689e-06
2.79971e-08
-2.96497e-06
2.80602e-08
-2.99303e-06
2.81383e-08
-3.02106e-06
2.81853e-08
-3.04905e-06
2.81147e-08
-3.07688e-06
2.79386e-08
-3.10444e-06
2.76407e-08
-3.13156e-06
2.72051e-08
-3.15811e-06
2.66137e-08
-3.1839e-06
2.58525e-08
-3.20875e-06
2.48956e-08
-3.23244e-06
2.37138e-08
-3.25467e-06
2.22291e-08
-3.27483e-06
2.01277e-08
-3.29277e-06
1.78555e-08
-3.30879e-06
1.5871e-08
-3.32221e-06
1.3203e-08
-3.33234e-06
9.84324e-09
-3.33891e-06
6.24897e-09
-3.34166e-06
2.38812e-09
-3.34065e-06
-1.33001e-09
-3.33621e-06
-4.77505e-09
-3.32781e-06
-8.66666e-09
-3.31546e-06
-1.26273e-08
-3.29917e-06
-1.65013e-08
-3.27848e-06
-2.09068e-08
-3.25318e-06
-2.54412e-08
-3.22293e-06
-3.0397e-08
-3.18762e-06
-3.53844e-08
-3.1476e-06
-4.01045e-08
-3.1023e-06
-4.53125e-08
-3.05151e-06
-5.07886e-08
-2.99531e-06
-5.61243e-08
-2.93375e-06
-6.15125e-08
-2.86685e-06
-6.68675e-08
-2.79453e-06
-7.23825e-08
-2.71674e-06
-7.7832e-08
-2.63358e-06
-8.32185e-08
-2.54508e-06
-8.84535e-08
-2.45145e-06
-9.35461e-08
-2.35283e-06
-9.84313e-08
-2.24949e-06
-1.03108e-07
-2.14168e-06
-1.07514e-07
-2.02972e-06
-1.1164e-07
-1.91392e-06
-1.15431e-07
-1.79467e-06
-1.18876e-07
-1.67234e-06
-1.21935e-07
-1.54734e-06
-1.24597e-07
-1.4201e-06
-1.26839e-07
-1.29106e-06
-1.28654e-07
-1.16065e-06
-1.30041e-07
-1.02931e-06
-1.31006e-07
-8.97459e-07
-1.31566e-07
-7.65503e-07
-1.31736e-07
-6.33778e-07
-1.31555e-07
-5.02728e-07
-1.30946e-07
-3.72732e-07
-1.29935e-07
-2.4369e-07
-1.29034e-07
-1.15001e-07
-1.28714e-07
1.44133e-08
-1.29475e-07
1.43466e-07
-1.29125e-07
2.69546e-07
-1.26168e-07
3.91674e-07
-1.22217e-07
5.09402e-07
-1.17824e-07
6.22528e-07
-1.13218e-07
7.30947e-07
-1.08513e-07
8.34634e-07
-1.03776e-07
9.33611e-07
-9.90643e-08
1.02796e-06
-9.44359e-08
1.11778e-06
-8.98945e-08
1.20317e-06
-8.54595e-08
1.28428e-06
-8.11751e-08
1.36127e-06
-7.70526e-08
1.43428e-06
-7.30619e-08
1.50344e-06
-6.92134e-08
1.56891e-06
-6.55154e-08
1.63086e-06
-6.19864e-08
1.68944e-06
-5.86151e-08
1.74479e-06
-5.53834e-08
1.79705e-06
-5.22792e-08
1.84633e-06
-4.93049e-08
1.89276e-06
-4.64417e-08
1.93641e-06
-4.36714e-08
1.97736e-06
-4.09665e-08
2.01563e-06
-3.8288e-08
2.05119e-06
-3.55634e-08
2.08386e-06
-3.26898e-08
2.11334e-06
-2.94942e-08
2.13896e-06
-2.56391e-08
2.15946e-06
-2.05263e-08
2.17124e-06
-1.1808e-08
2.16551e-06
5.70189e-09
2.12067e-06
4.48064e-08
1.12104e-07
2.00856e-06
2.74725e-08
-4.23667e-08
4.66003e-08
-4.54636e-08
5.7203e-08
-3.78559e-08
6.20708e-08
-2.89058e-08
6.25143e-08
-1.91705e-08
5.90579e-08
-8.9801e-09
5.19232e-08
1.3295e-09
4.1295e-08
1.14957e-08
2.71636e-08
2.12959e-08
9.37916e-09
3.0508e-08
-1.22234e-08
3.89482e-08
-3.76915e-08
4.65358e-08
-6.70496e-08
5.33144e-08
-1.00247e-07
5.94336e-08
-1.37317e-07
6.5119e-08
-1.77892e-07
7.06239e-08
-2.21603e-07
7.61277e-08
-2.68418e-07
8.17005e-08
-3.18239e-07
8.73624e-08
-3.70865e-07
9.30663e-08
-4.26095e-07
9.87095e-08
-4.83628e-07
1.04156e-07
-5.4316e-07
1.09259e-07
-6.04276e-07
1.13879e-07
-6.66577e-07
1.1789e-07
-7.29597e-07
1.21188e-07
-7.92929e-07
1.23704e-07
-8.56127e-07
1.25404e-07
-9.18843e-07
1.26285e-07
-9.80712e-07
1.26365e-07
-1.04148e-06
1.25699e-07
-1.1009e-06
1.24367e-07
-1.15883e-06
1.22465e-07
-1.21514e-06
1.20096e-07
-1.26978e-06
1.17361e-07
-1.32269e-06
1.14355e-07
-1.3739e-06
1.11166e-07
-1.42342e-06
1.07871e-07
-1.4713e-06
1.04539e-07
-1.51758e-06
1.01227e-07
-1.56236e-06
9.79775e-08
-1.60569e-06
9.48265e-08
-1.64767e-06
9.17973e-08
-1.68836e-06
8.89073e-08
-1.72786e-06
8.61651e-08
-1.76622e-06
8.35763e-08
-1.80354e-06
8.11397e-08
-1.83986e-06
7.88536e-08
-1.87527e-06
7.67111e-08
-1.90982e-06
7.47067e-08
-1.94356e-06
7.28308e-08
-1.97655e-06
7.10762e-08
-2.00883e-06
6.94326e-08
-2.04046e-06
6.78933e-08
-2.07147e-06
6.64485e-08
-2.10189e-06
6.50926e-08
-2.13178e-06
6.38173e-08
-2.16114e-06
6.26189e-08
-2.19003e-06
6.14904e-08
-2.21846e-06
6.04294e-08
-2.24647e-06
5.9431e-08
-2.27407e-06
5.84945e-08
-2.3013e-06
5.76164e-08
-2.32818e-06
5.67972e-08
-2.35474e-06
5.60348e-08
-2.381e-06
5.5331e-08
-2.40698e-06
5.46848e-08
-2.43272e-06
5.40989e-08
-2.45824e-06
5.35729e-08
-2.48357e-06
5.31094e-08
-2.50873e-06
5.27081e-08
-2.53376e-06
5.23702e-08
-2.55866e-06
5.20946e-08
-2.58349e-06
5.18806e-08
-2.60824e-06
5.17246e-08
-2.63295e-06
5.16238e-08
-2.65763e-06
5.1576e-08
-2.68229e-06
5.15756e-08
-2.70693e-06
5.16152e-08
-2.73158e-06
5.1685e-08
-2.75621e-06
5.17781e-08
-2.78083e-06
5.18824e-08
-2.80542e-06
5.19881e-08
-2.82997e-06
5.20814e-08
-2.85443e-06
5.21543e-08
-2.87878e-06
5.21795e-08
-2.90293e-06
5.21234e-08
-2.92685e-06
5.19674e-08
-2.95038e-06
5.17252e-08
-2.97346e-06
5.13424e-08
-2.99602e-06
5.07608e-08
-3.01797e-06
4.9944e-08
-3.03915e-06
4.88659e-08
-3.05941e-06
4.75069e-08
-3.07859e-06
4.58291e-08
-3.09651e-06
4.3807e-08
-3.113e-06
4.13957e-08
-3.12784e-06
3.85615e-08
-3.14087e-06
3.52436e-08
-3.15217e-06
3.13955e-08
-3.16157e-06
2.71705e-08
-3.16851e-06
2.26996e-08
-3.17316e-06
1.76875e-08
-3.17564e-06
1.21163e-08
-3.1758e-06
6.16659e-09
-3.17351e-06
-1.29041e-10
-3.1683e-06
-6.77988e-09
-3.15948e-06
-1.37955e-08
-3.14707e-06
-2.12815e-08
-3.13069e-06
-2.91654e-08
-3.10993e-06
-3.74216e-08
-3.08479e-06
-4.61684e-08
-3.05501e-06
-5.53291e-08
-3.02054e-06
-6.49472e-08
-2.98115e-06
-7.48396e-08
-2.93641e-06
-8.48802e-08
-2.88642e-06
-9.53303e-08
-2.83115e-06
-1.06028e-07
-2.77044e-06
-1.16803e-07
-2.70417e-06
-1.2774e-07
-2.63231e-06
-1.38724e-07
-2.55494e-06
-1.49787e-07
-2.47204e-06
-1.60788e-07
-2.38362e-06
-1.71666e-07
-2.28977e-06
-1.82285e-07
-2.19066e-06
-1.926e-07
-2.08647e-06
-2.02522e-07
-1.97744e-06
-2.11993e-07
-1.86386e-06
-2.20927e-07
-1.74605e-06
-2.29265e-07
-1.62435e-06
-2.36922e-07
-1.49917e-06
-2.43845e-07
-1.37092e-06
-2.4997e-07
-1.24004e-06
-2.55259e-07
-1.10699e-06
-2.59672e-07
-9.72249e-07
-2.63197e-07
-8.36284e-07
-2.65817e-07
-6.99573e-07
-2.67557e-07
-5.62571e-07
-2.68434e-07
-4.25716e-07
-2.68497e-07
-2.8938e-07
-2.67819e-07
-1.53663e-07
-2.66625e-07
-1.8586e-08
-2.64991e-07
1.15155e-07
-2.62783e-07
2.46333e-07
-2.59909e-07
3.73138e-07
-2.56317e-07
4.95304e-07
-2.51328e-07
6.13798e-07
-2.44713e-07
7.2861e-07
-2.37077e-07
8.39562e-07
-2.28834e-07
9.46512e-07
-2.20221e-07
1.04936e-06
-2.11418e-07
1.14806e-06
-2.02531e-07
1.24261e-06
-1.93668e-07
1.33303e-06
-1.84906e-07
1.41937e-06
-1.76294e-07
1.50173e-06
-1.67859e-07
1.58017e-06
-1.59661e-07
1.65479e-06
-1.51719e-07
1.72573e-06
-1.44036e-07
1.7931e-06
-1.36624e-07
1.85705e-06
-1.29497e-07
1.91771e-06
-1.22668e-07
1.9752e-06
-1.1613e-07
2.02964e-06
-1.09854e-07
2.08118e-06
-1.03829e-07
2.1299e-06
-9.80443e-08
2.17591e-06
-9.24718e-08
2.2193e-06
-8.70719e-08
2.26012e-06
-8.17983e-08
2.29839e-06
-7.65661e-08
2.33406e-06
-7.12451e-08
2.36699e-06
-6.56313e-08
2.39689e-06
-5.94069e-08
2.42321e-06
-5.19693e-08
2.44495e-06
-4.22828e-08
2.46087e-06
-2.77472e-08
2.47035e-06
-3.79867e-09
2.47206e-06
4.30713e-08
1.32635e-07
2.45152e-06
1.66762e-08
-5.91091e-08
2.27637e-08
-5.16042e-08
2.23883e-08
-3.7521e-08
1.75513e-08
-2.40952e-08
9.28382e-09
-1.09329e-08
-1.86347e-09
2.14458e-09
-1.56753e-08
1.51139e-08
-3.20838e-08
2.78827e-08
-5.11516e-08
4.03369e-08
-7.30083e-08
5.23438e-08
-9.78643e-08
6.37785e-08
-1.25912e-07
7.45637e-08
-1.57318e-07
8.4695e-08
-1.92142e-07
9.42388e-08
-2.30356e-07
1.03308e-07
-2.71775e-07
1.12024e-07
-3.16152e-07
1.2048e-07
-3.63187e-07
1.28718e-07
-4.12567e-07
1.36719e-07
-4.63928e-07
1.4441e-07
-5.16915e-07
1.51673e-07
-5.71143e-07
1.58367e-07
-6.26253e-07
1.64347e-07
-6.81871e-07
1.69481e-07
-7.37669e-07
1.73664e-07
-7.93325e-07
1.76825e-07
-8.48575e-07
1.78927e-07
-9.03158e-07
1.79968e-07
-9.56884e-07
1.79985e-07
-1.0096e-06
1.79056e-07
-1.0612e-06
1.77281e-07
-1.11163e-06
1.74772e-07
-1.16084e-06
1.7165e-07
-1.2088e-06
1.68035e-07
-1.25551e-06
1.64047e-07
-1.30097e-06
1.59793e-07
-1.34521e-06
1.55372e-07
-1.38823e-06
1.5087e-07
-1.43007e-06
1.46359e-07
-1.47076e-06
1.41902e-07
-1.51035e-06
1.37545e-07
-1.54887e-06
1.33325e-07
-1.58636e-06
1.29269e-07
-1.62287e-06
1.25395e-07
-1.65844e-06
1.21713e-07
-1.69311e-06
1.18227e-07
-1.72693e-06
1.14937e-07
-1.75993e-06
1.1184e-07
-1.79217e-06
1.08928e-07
-1.82368e-06
1.06193e-07
-1.8545e-06
1.03626e-07
-1.88466e-06
1.01216e-07
-1.91421e-06
9.89532e-08
-1.94316e-06
9.68265e-08
-1.97157e-06
9.48261e-08
-1.99945e-06
9.29431e-08
-2.02683e-06
9.11689e-08
-2.05374e-06
8.94967e-08
-2.0802e-06
8.79196e-08
-2.10624e-06
8.64328e-08
-2.13188e-06
8.50317e-08
-2.15713e-06
8.37138e-08
-2.18203e-06
8.24763e-08
-2.20658e-06
8.13185e-08
-2.23083e-06
8.02394e-08
-2.25477e-06
7.92397e-08
-2.27844e-06
7.83197e-08
-2.30186e-06
7.74812e-08
-2.32505e-06
7.67251e-08
-2.34803e-06
7.60529e-08
-2.37082e-06
7.5465e-08
-2.39344e-06
7.49619e-08
-2.41592e-06
7.45423e-08
-2.43827e-06
7.42036e-08
-2.46052e-06
7.39421e-08
-2.48269e-06
7.37532e-08
-2.50478e-06
7.36308e-08
-2.52681e-06
7.35668e-08
-2.54878e-06
7.35504e-08
-2.5707e-06
7.35688e-08
-2.59257e-06
7.36089e-08
-2.61438e-06
7.36549e-08
-2.63612e-06
7.36895e-08
-2.65776e-06
7.36929e-08
-2.67929e-06
7.36445e-08
-2.70065e-06
7.35132e-08
-2.72182e-06
7.32627e-08
-2.74272e-06
7.28624e-08
-2.76326e-06
7.22866e-08
-2.78336e-06
7.1497e-08
-2.80297e-06
7.04239e-08
-2.82202e-06
6.90185e-08
-2.84038e-06
6.72486e-08
-2.85793e-06
6.50688e-08
-2.87453e-06
6.2446e-08
-2.89005e-06
5.93306e-08
-2.90434e-06
5.56872e-08
-2.91726e-06
5.14672e-08
-2.92868e-06
4.66406e-08
-2.93851e-06
4.11833e-08
-2.94656e-06
3.51389e-08
-2.95251e-06
2.85459e-08
-2.95628e-06
2.13155e-08
-2.95775e-06
1.34179e-08
-2.95666e-06
4.89278e-09
-2.9527e-06
-4.25632e-09
-2.94558e-06
-1.40741e-08
-2.93498e-06
-2.45394e-08
-2.92074e-06
-3.56679e-08
-2.90256e-06
-4.7451e-08
-2.88021e-06
-5.98932e-08
-2.85348e-06
-7.29733e-08
-2.82222e-06
-8.66803e-08
-2.78623e-06
-1.00985e-07
-2.74533e-06
-1.15786e-07
-2.69926e-06
-1.30973e-07
-2.64798e-06
-1.46622e-07
-2.59139e-06
-1.62593e-07
-2.52938e-06
-1.7879e-07
-2.46185e-06
-1.95241e-07
-2.38878e-06
-2.11802e-07
-2.31019e-06
-2.28405e-07
-2.2261e-06
-2.44925e-07
-2.13653e-06
-2.61246e-07
-2.0416e-06
-2.77212e-07
-1.94144e-06
-2.92706e-07
-1.83628e-06
-3.07615e-07
-1.72635e-06
-3.21817e-07
-1.61197e-06
-3.352e-07
-1.49345e-06
-3.4765e-07
-1.37117e-06
-3.59054e-07
-1.24555e-06
-3.69315e-07
-1.11703e-06
-3.78345e-07
-9.86061e-07
-3.86076e-07
-8.53132e-07
-3.92458e-07
-7.18726e-07
-3.97464e-07
-5.83338e-07
-4.01083e-07
-4.47442e-07
-4.03343e-07
-3.11507e-07
-4.04284e-07
-1.75898e-07
-4.04032e-07
-4.09454e-08
-4.02717e-07
9.28078e-08
-4.00328e-07
2.246e-07
-3.96749e-07
3.53767e-07
-3.9192e-07
4.79736e-07
-3.8586e-07
6.01926e-07
-3.78489e-07
7.20196e-07
-3.69591e-07
8.34738e-07
-3.59245e-07
9.45503e-07
-3.4784e-07
1.05239e-06
-3.35716e-07
1.1553e-06
-3.23135e-07
1.25419e-06
-3.10298e-07
1.34901e-06
-2.97361e-07
1.4398e-06
-2.84451e-07
1.52657e-06
-2.71677e-07
1.60938e-06
-2.59112e-07
1.68833e-06
-2.46806e-07
1.76349e-06
-2.34819e-07
1.83497e-06
-2.23204e-07
1.90292e-06
-2.11981e-07
1.96745e-06
-2.01161e-07
2.02871e-06
-1.90749e-07
2.0868e-06
-1.80761e-07
2.14186e-06
-1.71191e-07
2.19402e-06
-1.62013e-07
2.2434e-06
-1.53203e-07
2.2901e-06
-1.44742e-07
2.33422e-06
-1.36588e-07
2.37585e-06
-1.2869e-07
2.41503e-06
-1.20975e-07
2.45179e-06
-1.13321e-07
2.48609e-06
-1.05541e-07
2.51781e-06
-9.7354e-08
2.54672e-06
-8.83165e-08
2.57241e-06
-7.76546e-08
2.59418e-06
-6.40571e-08
2.6112e-06
-4.47789e-08
2.62277e-06
-1.53741e-08
2.63077e-06
3.50759e-08
1.24896e-07
2.63851e-06
2.22061e-09
-6.13885e-08
-3.72651e-09
-4.56996e-08
-1.27057e-08
-2.85732e-08
-2.41856e-08
-1.26357e-08
-3.7868e-08
2.72753e-09
-5.3578e-08
1.78386e-08
-7.12821e-08
3.27982e-08
-9.10114e-08
4.75975e-08
-1.12867e-07
6.21737e-08
-1.36974e-07
7.64369e-08
-1.63505e-07
9.0291e-08
-1.92611e-07
1.03656e-07
-2.24419e-07
1.16485e-07
-2.58959e-07
1.28766e-07
-2.96182e-07
1.40514e-07
-3.35922e-07
1.5175e-07
-3.77943e-07
1.62484e-07
-4.21935e-07
1.72696e-07
-4.67565e-07
1.82332e-07
-5.14468e-07
1.913e-07
-5.62301e-07
1.99488e-07
-6.10721e-07
2.06774e-07
-6.59432e-07
2.13039e-07
-7.08152e-07
2.18187e-07
-7.56658e-07
2.22151e-07
-8.04747e-07
2.24898e-07
-8.52271e-07
2.26432e-07
-8.9911e-07
2.26791e-07
-9.45194e-07
2.26048e-07
-9.9046e-07
2.24306e-07
-1.03488e-06
2.2168e-07
-1.07842e-06
2.18297e-07
-1.12108e-06
2.14287e-07
-1.16283e-06
2.09775e-07
-1.20369e-06
2.04884e-07
-1.24364e-06
1.99725e-07
-1.28268e-06
1.944e-07
-1.32083e-06
1.88999e-07
-1.35808e-06
1.83599e-07
-1.39446e-06
1.78263e-07
-1.42997e-06
1.73041e-07
-1.46463e-06
1.67973e-07
-1.49847e-06
1.63087e-07
-1.53149e-06
1.58404e-07
-1.56373e-06
1.53936e-07
-1.59521e-06
1.4969e-07
-1.62595e-06
1.45666e-07
-1.65599e-06
1.41862e-07
-1.68535e-06
1.38272e-07
-1.71406e-06
1.34887e-07
-1.74215e-06
1.31697e-07
-1.76964e-06
1.28692e-07
-1.79657e-06
1.25859e-07
-1.82295e-06
1.23189e-07
-1.84882e-06
1.20669e-07
-1.87419e-06
1.18289e-07
-1.89908e-06
1.16041e-07
-1.92353e-06
1.13915e-07
-1.94754e-06
1.11905e-07
-1.97113e-06
1.10004e-07
-1.99434e-06
1.08208e-07
-2.01716e-06
1.06514e-07
-2.03963e-06
1.04918e-07
-2.06176e-06
1.0342e-07
-2.08357e-06
1.0202e-07
-2.10508e-06
1.00718e-07
-2.1263e-06
9.95146e-08
-2.14726e-06
9.84122e-08
-2.16797e-06
9.74123e-08
-2.18846e-06
9.65163e-08
-2.20875e-06
9.57253e-08
-2.22885e-06
9.5039e-08
-2.24879e-06
9.44563e-08
-2.26858e-06
9.39745e-08
-2.28826e-06
9.35888e-08
-2.30782e-06
9.32928e-08
-2.3273e-06
9.30789e-08
-2.34669e-06
9.29358e-08
-2.36602e-06
9.28501e-08
-2.38528e-06
9.28056e-08
-2.40449e-06
9.27847e-08
-2.42362e-06
9.27665e-08
-2.44269e-06
9.2728e-08
-2.46167e-06
9.2643e-08
-2.48053e-06
9.24819e-08
-2.49925e-06
9.22086e-08
-2.51779e-06
9.17812e-08
-2.5361e-06
9.11572e-08
-2.55409e-06
9.02993e-08
-2.57171e-06
8.91445e-08
-2.5889e-06
8.76431e-08
-2.60559e-06
8.57262e-08
-2.62169e-06
8.33465e-08
-2.63707e-06
8.04507e-08
-2.65162e-06
7.69917e-08
-2.66521e-06
7.29137e-08
-2.6777e-06
6.81699e-08
-2.68897e-06
6.27089e-08
-2.69886e-06
5.6494e-08
-2.70723e-06
4.94946e-08
-2.71388e-06
4.1707e-08
-2.71858e-06
3.31329e-08
-2.72113e-06
2.37296e-08
-2.72133e-06
1.34659e-08
-2.71893e-06
2.33236e-09
-2.71365e-06
-9.68277e-09
-2.70526e-06
-2.26112e-08
-2.69349e-06
-3.64295e-08
-2.67813e-06
-5.114e-08
-2.65895e-06
-6.67339e-08
-2.63571e-06
-8.32196e-08
-2.6082e-06