/*--------------------------------*- C++ -*----------------------------------*\
| =========                 |                                                 |
| \\      /  F ield         | OpenFOAM: The Open Source CFD Toolbox           |
|  \\    /   O peration     | Version:  v1712                                 |
|   \\  /    A nd           | Web:      www.OpenFOAM.com                      |
|    \\/     M anipulation  |                                                 |
\*---------------------------------------------------------------------------*/
FoamFile
{
    version     2.0;
    format      ascii;
    class       volVectorField;
    location    "100";
    object      U;
}
// * * * * * * * * * * * * * * * * * * * * * * * * * * * * * * * * * * * * * //

dimensions      [0 1 -1 0 0 0 0];


internalField   nonuniform List<vector> 
12225
(
(9.84122 -0.956294 0)
(9.59261 -0.8879 0)
(9.31778 -0.594485 0)
(9.01511 -0.37002 0)
(8.72639 -0.226013 0)
(8.46805 -0.137919 0)
(8.24127 -0.0845542 0)
(8.04339 -0.0517129 0)
(7.8719 -0.0313368 0)
(7.72347 -0.0187265 0)
(7.59502 -0.0108129 0)
(7.48354 -0.00591056 0)
(7.38684 -0.00295719 0)
(7.30302 -0.00131444 0)
(7.23048 -0.000536255 0)
(7.17032 -0.00101923 0)
(7.11342 0.00157907 0)
(7.08926 -0.0180605 0)
(10.0721 0.255827 0)
(10.1868 0.418344 0)
(10.2285 0.384097 0)
(10.2298 0.310363 0)
(10.2116 0.245626 0)
(10.1797 0.195357 0)
(10.1339 0.157579 0)
(10.0766 0.129539 0)
(10.0115 0.108655 0)
(9.94222 0.0928723 0)
(9.87101 0.080639 0)
(9.79967 0.0709518 0)
(9.7293 0.0630564 0)
(9.66106 0.0564627 0)
(9.59536 0.0505155 0)
(9.53318 0.0456096 0)
(9.47511 0.0386569 0)
(9.42306 0.0379406 0)
(10.0032 0.0599516 0)
(10.0309 0.0482533 0)
(10.0615 0.00995747 0)
(10.0899 -8.55678e-05 0)
(10.1154 0.0080562 0)
(10.138 0.0192793 0)
(10.1552 0.0288287 0)
(10.1664 0.0362669 0)
(10.1724 0.0417697 0)
(10.1742 0.0455535 0)
(10.1726 0.0479314 0)
(10.1682 0.0491931 0)
(10.1615 0.0495624 0)
(10.1531 0.0491726 0)
(10.1436 0.0480352 0)
(10.1335 0.0461214 0)
(10.1235 0.0430573 0)
(10.1126 0.0373999 0)
(9.99715 0.00990215 0)
(10.009 0.0260594 0)
(10.0342 0.0382385 0)
(10.0555 0.0532951 0)
(10.0724 0.06479 0)
(10.088 0.07009 0)
(10.102 0.0711907 0)
(10.1142 0.0703769 0)
(10.1246 0.0687277 0)
(10.1338 0.0666653 0)
(10.142 0.0643866 0)
(10.1492 0.0620059 0)
(10.1556 0.0595307 0)
(10.1613 0.056923 0)
(10.1665 0.0540227 0)
(10.1714 0.0506517 0)
(10.176 0.0462548 0)
(10.1797 0.0396618 0)
(9.99907 0.0067941 0)
(10.0082 0.0342595 0)
(10.028 0.0482674 0)
(10.0438 0.0547697 0)
(10.0561 0.0581904 0)
(10.0682 0.0593169 0)
(10.0799 0.0590245 0)
(10.0905 0.0582099 0)
(10.1001 0.0572294 0)
(10.1089 0.0561128 0)
(10.1173 0.0548479 0)
(10.1251 0.0534212 0)
(10.1326 0.0517964 0)
(10.1397 0.0499003 0)
(10.1466 0.0475906 0)
(10.1534 0.0446744 0)
(10.1598 0.0407805 0)
(10.1655 0.0355217 0)
(10.0002 0.00922481 0)
(10.008 0.0333515 0)
(10.0237 0.0439701 0)
(10.037 0.0482474 0)
(10.0481 0.0516516 0)
(10.0589 0.0539858 0)
(10.0696 0.0549447 0)
(10.0793 0.0550211 0)
(10.0881 0.0546046 0)
(10.0963 0.0538213 0)
(10.1041 0.0527199 0)
(10.1116 0.0513345 0)
(10.1188 0.0496636 0)
(10.1257 0.0476612 0)
(10.1325 0.0452207 0)
(10.139 0.0421929 0)
(10.1452 0.0383767 0)
(10.1507 0.0335969 0)
(10.0003 0.00910303 0)
(10.007 0.0286842 0)
(10.0202 0.0387651 0)
(10.0324 0.04384 0)
(10.0428 0.0478769 0)
(10.0529 0.0506064 0)
(10.0628 0.0517649 0)
(10.0719 0.0518979 0)
(10.0802 0.0514663 0)
(10.0881 0.0506396 0)
(10.0955 0.0494812 0)
(10.1026 0.048028 0)
(10.1095 0.0462837 0)
(10.1161 0.0442068 0)
(10.1225 0.0417154 0)
(10.1286 0.0387002 0)
(10.1343 0.0350534 0)
(10.1394 0.0307026 0)
(10.0004 0.00811784 0)
(10.006 0.0246209 0)
(10.0172 0.0347301 0)
(10.0285 0.0403084 0)
(10.0384 0.0443117 0)
(10.0479 0.0469402 0)
(10.0572 0.0481203 0)
(10.0659 0.0483211 0)
(10.074 0.0479517 0)
(10.0815 0.047173 0)
(10.0887 0.0460468 0)
(10.0956 0.0446074 0)
(10.1022 0.0428626 0)
(10.1085 0.0407817 0)
(10.1146 0.0383093 0)
(10.1204 0.035376 0)
(10.1256 0.031936 0)
(10.1303 0.0279848 0)
(10.0004 0.00717849 0)
(10.0052 0.0214114 0)
(10.0147 0.031089 0)
(10.0249 0.0366915 0)
(10.0343 0.0405036 0)
(10.0433 0.043035 0)
(10.0521 0.0442879 0)
(10.0605 0.0446013 0)
(10.0684 0.0443184 0)
(10.0757 0.0435998 0)
(10.0827 0.0425127 0)
(10.0894 0.0410947 0)
(10.0958 0.0393611 0)
(10.1019 0.0372964 0)
(10.1076 0.0348704 0)
(10.113 0.0320487 0)
(10.118 0.0288257 0)
(10.1224 0.0252338 0)
(10.0004 0.00633541 0)
(10.0045 0.0186214 0)
(10.0126 0.0275407 0)
(10.0218 0.0329935 0)
(10.0306 0.0366447 0)
(10.0391 0.0390896 0)
(10.0474 0.0403838 0)
(10.0555 0.040774 0)
(10.0631 0.0405518 0)
(10.0702 0.0398784 0)
(10.077 0.0388264 0)
(10.0835 0.037437 0)
(10.0897 0.0357317 0)
(10.0955 0.0337101 0)
(10.1011 0.0313627 0)
(10.1062 0.0286821 0)
(10.1108 0.0256868 0)
(10.115 0.0224263 0)
(10.0004 0.00554142 0)
(10.0039 0.0161076 0)
(10.0108 0.0241511 0)
(10.019 0.0293458 0)
(10.0272 0.0328167 0)
(10.0352 0.0351333 0)
(10.0431 0.0364062 0)
(10.0507 0.0368283 0)
(10.058 0.0366429 0)
(10.065 0.0360034 0)
(10.0715 0.0349858 0)
(10.0778 0.0336332 0)
(10.0838 0.0319736 0)
(10.0894 0.0300187 0)
(10.0947 0.0277754 0)
(10.0996 0.0252551 0)
(10.104 0.0224899 0)
(10.108 0.0195354 0)
(10.0003 0.00483273 0)
(10.0034 0.013993 0)
(10.0094 0.0212025 0)
(10.0168 0.0260661 0)
(10.0244 0.0293266 0)
(10.0319 0.0314889 0)
(10.0394 0.0327002 0)
(10.0467 0.0331199 0)
(10.0537 0.0329502 0)
(10.0604 0.0323332 0)
(10.0668 0.0313448 0)
(10.0728 0.030031 0)
(10.0786 0.0284243 0)
(10.084 0.0265466 0)
(10.089 0.0244152 0)
(10.0937 0.0220528 0)
(10.0979 0.0194968 0)
(10.1017 0.0168039 0)
(10.0003 0.00416847 0)
(10.003 0.012052 0)
(10.0082 0.0184159 0)
(10.0149 0.0228668 0)
(10.0219 0.0258782 0)
(10.029 0.0278637 0)
(10.036 0.0289844 0)
(10.043 0.0293769 0)
(10.0497 0.0292079 0)
(10.0561 0.0286054 0)
(10.0623 0.0276447 0)
(10.0681 0.0263731 0)
(10.0736 0.0248268 0)
(10.0788 0.0230347 0)
(10.0836 0.0210223 0)
(10.0881 0.018819 0)
(10.0922 0.0164636 0)
(10.0958 0.0140096 0)
(10.0003 0.00347667 0)
(10.0026 0.0100282 0)
(10.0071 0.0154265 0)
(10.013 0.0193262 0)
(10.0194 0.021994 0)
(10.026 0.0237381 0)
(10.0326 0.0247159 0)
(10.0391 0.0250439 0)
(10.0455 0.0248538 0)
(10.0516 0.0242563 0)
(10.0575 0.023324 0)
(10.0631 0.022104 0)
(10.0683 0.0206347 0)
(10.0733 0.0189488 0)
(10.0779 0.0170787 0)
(10.0821 0.0150568 0)
(10.086 0.0129214 0)
(10.0895 0.0107188 0)
(10.0002 0.0027535 0)
(10.0022 0.00791797 0)
(10.0061 0.0122447 0)
(10.0113 0.0154521 0)
(10.0171 0.0176641 0)
(10.0231 0.019087 0)
(10.0292 0.019857 0)
(10.0353 0.0200716 0)
(10.0413 0.0198303 0)
(10.0471 0.0192233 0)
(10.0526 0.0183165 0)
(10.0579 0.0171566 0)
(10.0629 0.0157801 0)
(10.0676 0.0142219 0)
(10.0719 0.0125151 0)
(10.076 0.0106943 0)
(10.0796 0.00879323 0)
(10.083 0.00685055 0)
(10.0002 0.00199952 0)
(10.0019 0.00572607 0)
(10.0052 0.00888402 0)
(10.0097 0.0112577 0)
(10.0149 0.0128868 0)
(10.0204 0.0138932 0)
(10.026 0.0143782 0)
(10.0317 0.0144185 0)
(10.0372 0.014086 0)
(10.0427 0.013448 0)
(10.0479 0.0125595 0)
(10.0528 0.011463 0)
(10.0575 0.0101925 0)
(10.062 0.00877938 0)
(10.0661 0.00725442 0)
(10.0699 0.00564872 0)
(10.0734 0.00399206 0)
(10.0766 0.00231269 0)
(10.0002 0.00121387 0)
(10.0016 0.00344371 0)
(10.0045 0.00533522 0)
(10.0084 0.00673616 0)
(10.0131 0.00764691 0)
(10.018 0.0081275 0)
(10.0232 0.00824001 0)
(10.0284 0.00803588 0)
(10.0336 0.00756263 0)
(10.0387 0.00686428 0)
(10.0436 0.00598082 0)
(10.0482 0.00494538 0)
(10.0527 0.00378642 0)
(10.0568 0.00252853 0)
(10.0607 0.00119667 0)
(10.0643 -0.000185445 0)
(10.0677 -0.00159396 0)
(10.0708 -0.00301041 0)
(10.0002 0.000382388 0)
(10.0014 0.00102476 0)
(10.004 0.00153337 0)
(10.0075 0.00181708 0)
(10.0117 0.0018652 0)
(10.0163 0.00169733 0)
(10.0211 0.00133782 0)
(10.026 0.000809806 0)
(10.0308 0.000136619 0)
(10.0356 -0.00065986 0)
(10.0402 -0.00155911 0)
(10.0446 -0.00254223 0)
(10.0488 -0.00359163 0)
(10.0527 -0.00469144 0)
(10.0564 -0.005826 0)
(10.0599 -0.00698002 0)
(10.0631 -0.00813831 0)
(10.0661 -0.00929053 0)
(10.0001 -0.000536458 0)
(10.0013 -0.00164701 0)
(10.0037 -0.00268872 0)
(10.0071 -0.00368678 0)
(10.0111 -0.00464668 0)
(10.0155 -0.00558245 0)
(10.0201 -0.00650911 0)
(10.0247 -0.00743535 0)
(10.0294 -0.00836332 0)
(10.034 -0.00929492 0)
(10.0384 -0.0102313 0)
(10.0426 -0.0111725 0)
(10.0467 -0.012116 0)
(10.0505 -0.0130587 0)
(10.0541 -0.0139963 0)
(10.0574 -0.014924 0)
(10.0605 -0.0158359 0)
(10.0634 -0.0167304 0)
(10.0002 -0.00140403 0)
(10.0014 -0.00417287 0)
(10.0039 -0.00669373 0)
(10.0074 -0.00890631 0)
(10.0116 -0.0108068 0)
(10.0161 -0.0124516 0)
(10.0208 -0.0138981 0)
(10.0255 -0.0151809 0)
(10.0302 -0.0163292 0)
(10.0348 -0.017371 0)
(10.0392 -0.0183313 0)
(10.0435 -0.0192273 0)
(10.0475 -0.0200713 0)
(10.0513 -0.0208706 0)
(10.0548 -0.0216323 0)
(10.0582 -0.0223601 0)
(10.0613 -0.0230571 0)
(10.0641 -0.0237264 0)
(10.0002 -0.00213754 0)
(10.0015 -0.00634182 0)
(10.0043 -0.0101497 0)
(10.0082 -0.013354 0)
(10.0127 -0.015969 0)
(10.0175 -0.0181463 0)
(10.0224 -0.019985 0)
(10.0273 -0.0215251 0)
(10.0322 -0.022812 0)
(10.0369 -0.023902 0)
(10.0414 -0.0248453 0)
(10.0458 -0.0256759 0)
(10.0498 -0.0264184 0)
(10.0537 -0.0270897 0)
(10.0573 -0.0277046 0)
(10.0606 -0.0282737 0)
(10.0638 -0.0288048 0)
(10.0667 -0.0293057 0)
(10.0002 -0.0028147 0)
(10.0017 -0.00844761 0)
(10.0048 -0.0135721 0)
(10.0093 -0.0176772 0)
(10.0143 -0.0208495 0)
(10.0195 -0.0234223 0)
(10.0247 -0.0255501 0)
(10.03 -0.0272748 0)
(10.0351 -0.0286551 0)
(10.04 -0.0297682 0)
(10.0447 -0.0306759 0)
(10.0491 -0.0314251 0)
(10.0533 -0.0320504 0)
(10.0572 -0.0325819 0)
(10.0608 -0.0330407 0)
(10.0642 -0.0334451 0)
(10.0674 -0.033805 0)
(10.0703 -0.0341303 0)
(10.0001 -0.00341674 0)
(10.0017 -0.0105297 0)
(10.0054 -0.0169809 0)
(10.0107 -0.0218999 0)
(10.0164 -0.025601 0)
(10.022 -0.02854 0)
(10.0276 -0.0308452 0)
(10.0332 -0.0326034 0)
(10.0386 -0.0339584 0)
(10.0437 -0.0350266 0)
(10.0486 -0.0358727 0)
(10.0532 -0.0365404 0)
(10.0574 -0.0370696 0)
(10.0614 -0.037495 0)
(10.0652 -0.0378433 0)
(10.0686 -0.0381334 0)
(10.0718 -0.0383786 0)
(10.0748 -0.0385907 0)
(10.0001 -0.0038994 0)
(10.0016 -0.0129965 0)
(10.006 -0.0204897 0)
(10.0123 -0.0256139 0)
(10.0186 -0.0297346 0)
(10.0247 -0.0332635 0)
(10.0308 -0.0359318 0)
(10.0367 -0.0377688 0)
(10.0424 -0.0390412 0)
(10.0477 -0.0399513 0)
(10.0528 -0.0405971 0)
(10.0575 -0.0410415 0)
(10.0619 -0.041342 0)
(10.066 -0.0415455 0)
(10.0698 -0.0416861 0)
(10.0734 -0.041785 0)
(10.0766 -0.0418554 0)
(10.0796 -0.0418977 0)
(9.9998 -0.0035712 0)
(10.0011 -0.0166327 0)
(10.0069 -0.0256548 0)
(10.014 -0.029878 0)
(10.0205 -0.0332473 0)
(10.0269 -0.0367532 0)
(10.0337 -0.0397414 0)
(10.0404 -0.041976 0)
(10.0466 -0.0436144 0)
(10.0523 -0.0448055 0)
(10.0577 -0.0456315 0)
(10.0628 -0.0461661 0)
(10.0674 -0.046485 0)
(10.0718 -0.0466522 0)
(10.0757 -0.0467149 0)
(10.0794 -0.046707 0)
(10.0829 -0.0466534 0)
(10.0861 -0.0465675 0)
(9.99829 -1.64687e-05 0)
(9.99795 -0.0176818 0)
(10.0068 -0.0316046 0)
(10.0161 -0.03773 0)
(10.0231 -0.040466 0)
(10.03 -0.0420553 0)
(10.0374 -0.0430535 0)
(10.0449 -0.0437954 0)
(10.0519 -0.0444439 0)
(10.0585 -0.0450053 0)
(10.0646 -0.0454476 0)
(10.0703 -0.0457823 0)
(10.0756 -0.0460329 0)
(10.0804 -0.0462265 0)
(10.0849 -0.0463766 0)
(10.089 -0.0465003 0)
(10.0928 -0.0466012 0)
(10.0962 -0.0466509 0)
(9.99413 0.00276454 0)
(9.98993 -0.00764537 0)
(10.0031 -0.022933 0)
(10.0184 -0.0397805 0)
(10.03 -0.053202 0)
(10.04 -0.0610039 0)
(10.0497 -0.0645696 0)
(10.0587 -0.06585 0)
(10.067 -0.0659743 0)
(10.0747 -0.0653874 0)
(10.0819 -0.0643699 0)
(10.0885 -0.063112 0)
(10.0945 -0.061778 0)
(10.1 -0.0604481 0)
(10.1049 -0.0591864 0)
(10.1093 -0.0580229 0)
(10.1134 -0.0569837 0)
(10.1171 -0.0560219 0)
(9.9942 -0.030516 0)
(9.99523 -0.0134897 0)
(10.0085 0.0214598 0)
(10.0271 0.0319382 0)
(10.0468 0.0240414 0)
(10.0665 0.0114725 0)
(10.0846 -0.000271584 0)
(10.1002 -0.0105119 0)
(10.1133 -0.0191779 0)
(10.1243 -0.0262785 0)
(10.1334 -0.0319072 0)
(10.1407 -0.036308 0)
(10.1463 -0.0397115 0)
(10.1504 -0.042334 0)
(10.1533 -0.0443383 0)
(10.1549 -0.0458947 0)
(10.1557 -0.0471326 0)
(10.1555 -0.0481999 0)
(10.0368 -0.209419 0)
(10.1083 -0.365921 0)
(10.1423 -0.352779 0)
(10.1567 -0.298083 0)
(10.1695 -0.247681 0)
(10.1817 -0.206862 0)
(10.1881 -0.174443 0)
(10.1863 -0.149098 0)
(10.1768 -0.129397 0)
(10.1612 -0.113888 0)
(10.1404 -0.101508 0)
(10.1158 -0.0914984 0)
(10.0881 -0.0833256 0)
(10.0582 -0.076582 0)
(10.027 -0.0709869 0)
(9.99484 -0.0663612 0)
(9.96236 -0.0625527 0)
(9.93018 -0.0598677 0)
(9.92866 0.765528 0)
(9.83918 0.742056 0)
(9.70519 0.524414 0)
(9.52607 0.348754 0)
(9.33141 0.227653 0)
(9.13998 0.14694 0)
(8.95795 0.0935269 0)
(8.7878 0.0579233 0)
(8.63093 0.0340513 0)
(8.48797 0.0180282 0)
(8.3583 0.007357 0)
(8.2411 0.000371434 0)
(8.1352 -0.00418517 0)
(8.03954 -0.00704605 0)
(7.95301 -0.00873061 0)
(7.87463 -0.00967492 0)
(7.80306 -0.0101617 0)
(7.7379 -0.0107793 0)
(0.00615249 -0.0102106 -7.86337e-19)
(0.0255038 -0.0293549 5.22953e-19)
(0.0480301 -0.0370615 0)
(0.0710267 -0.0362114 0)
(0.0905707 -0.0300212 0)
(0.104657 -0.0213085 -2.65238e-19)
(0.112801 -0.0117201 0)
(0.115236 -0.00210345 0)
(0.111379 0.00687034 0)
(0.102106 0.0145846 0)
(0.0883123 0.0208019 2.55903e-19)
(0.0708922 0.0254779 0)
(0.0506233 0.0287714 0)
(0.0280784 0.03109 0)
(0.0036419 0.0329219 0)
(-0.0225056 0.0343277 3.11681e-19)
(-0.0505107 0.035433 0)
(-0.0806599 0.0366303 0)
(-0.113148 0.0381168 0)
(-0.148152 0.0399254 0)
(-0.185863 0.0419898 0)
(-0.226399 0.0442192 0)
(-0.269759 0.0465103 0)
(-0.315916 0.0488074 1.3613e-19)
(-0.36478 0.0510294 -1.24743e-19)
(-0.416136 0.0530862 1.14765e-19)
(-0.469709 0.054894 1.06002e-19)
(-0.52516 0.0563902 0)
(-0.582113 0.0575176 0)
(-0.640165 0.0582507 -8.56607e-20)
(-0.698894 0.0585716 -8.04538e-20)
(-0.757885 0.0584938 0)
(-0.816755 0.0580379 0)
(-0.875164 0.0572454 -6.82644e-20)
(-0.932819 0.0561585 0)
(-0.989472 0.0548329 0)
(-1.04493 0.0533166 5.97826e-20)
(-1.09905 0.0516661 0)
(-1.15174 0.049925 5.55252e-20)
(-1.20294 0.0481407 1.07417e-19)
(-1.25262 0.0463437 0)
(-1.3008 0.0445675 0)
(-1.34751 0.0428294 0)
(-1.39279 0.0411504 0)
(-1.43671 0.0395364 0)
(-1.47932 0.0379994 9.13844e-20)
(-1.5207 0.0365378 8.93743e-20)
(-1.56092 0.0351582 8.74927e-20)
(-1.60005 0.0338546 0)
(-1.63817 0.0326287 -8.40465e-20)
(-1.67533 0.0314699 0)
(-1.71162 0.0303791 8.09381e-20)
(-1.74708 0.0293464 7.94844e-20)
(-1.78177 0.028372 0)
(-1.81575 0.0274457 0)
(-1.84906 0.0265692 0)
(-1.88174 0.025734 7.41596e-20)
(-1.91384 0.0249424 0)
(-1.94539 0.0241859 0)
(-1.97643 0.023469 0)
(-2.00699 0.022785 0)
(-2.03709 0.0221391 0)
(-2.06678 0.0215254 0)
(-2.09608 0.0209499 0)
(-2.12501 0.0204076 0)
(-2.15361 0.0199051 -6.37108e-20)
(-2.1819 0.0194378 0)
(-2.20992 0.0190111 0)
(-2.23769 0.0186215 6.04177e-20)
(-2.26524 0.0182744 5.93288e-20)
(-2.29261 0.0179675 0)
(-2.31983 0.0177048 -5.71619e-20)
(-2.34693 0.0174833 5.60834e-20)
(-2.37396 0.0173063 0)
(-2.40095 0.0171725 -5.39351e-20)
(-2.42795 0.017085 0)
(-2.45497 0.0170466 0)
(-2.48206 0.0170601 5.07419e-20)
(-2.50925 0.017125 0)
(-2.53656 0.0172408 -4.86422e-20)
(-2.56401 0.0174093 0)
(-2.59163 0.0176271 4.65782e-20)
(-2.61941 0.0178909 4.55641e-20)
(-2.64739 0.0182069 4.45645e-20)
(-2.67557 0.0185999 8.71657e-20)
(-2.70396 0.0190126 -8.52431e-20)
(-2.73253 0.0193377 0)
(-2.76123 0.0196319 0)
(-2.78996 0.0200453 0)
(-2.81875 0.0204171 -7.80346e-20)
(-2.84762 0.0206203 -7.63591e-20)
(-2.87646 0.0207331 7.47381e-20)
(-2.90517 0.0207439 0)
(-2.93362 0.0206216 -7.16614e-20)
(-2.96168 0.0203616 -7.02075e-20)
(-2.98918 0.0199604 -6.88122e-20)
(-3.01597 0.0193998 0)
(-3.04184 0.0186349 0)
(-3.06658 0.0175261 0)
(-3.08974 0.0155191 -6.39051e-20)
(-3.11089 0.0140041 0)
(-3.13012 0.0140755 0)
(-3.14741 0.0132704 6.08635e-20)
(-3.16193 0.0116163 0)
(-3.1732 0.010136 0)
(-3.18094 0.0085436 5.85336e-20)
(-3.1849 0.00715154 0)
(-3.18568 0.00612438 0)
(-3.18303 0.00415478 -5.63713e-20)
(-3.17651 0.00245301 -5.55386e-20)
(-3.16633 0.00139246 0)
(-3.15209 -0.00052985 5.38528e-20)
(-3.13356 -0.0025428 0)
(-3.11041 -0.00514533 -5.18455e-20)
(-3.08239 -0.00756962 0)
(-3.04961 -0.00915161 -4.93078e-20)
(-3.01207 -0.011618 -4.77907e-20)
(-2.9692 -0.0147003 0)
(-2.92091 -0.0174592 0)
(-2.86742 -0.0201477 0)
(-2.80864 -0.0228627 0)
(-2.7445 -0.0260257 0)
(-2.67491 -0.0292854 0)
(-2.59993 -0.0326338 0)
(-2.51955 -0.0360632 -2.35087e-20)
(-2.43389 -0.0395584 1.81624e-20)
(-2.34309 -0.043085 0)
(-2.24734 -0.0466293 0)
(-2.14686 -0.0501461 0)
(-2.04193 -0.0536144 0)
(-1.93282 -0.0569955 -4.21749e-20)
(-1.81986 -0.0602693 0)
(-1.70342 -0.063403 8.85686e-20)
(-1.58386 -0.0663815 -1.15858e-19)
(-1.46157 -0.0691772 0)
(-1.33699 -0.0717844 0)
(-1.21051 -0.0742109 0)
(-1.08257 -0.0764547 2.60002e-19)
(-0.953579 -0.0785304 3.07173e-19)
(-0.82394 -0.0804526 0)
(-0.694028 -0.0822416 4.19989e-19)
(-0.564208 -0.0838502 4.88005e-19)
(-0.434985 -0.0852455 -5.66034e-19)
(-0.30626 -0.0865185 0)
(-0.179457 -0.0878498 0)
(-0.0512624 -0.0874812 -8.09926e-19)
(0.0798625 -0.0843332 0)
(0.20815 -0.0801961 0)
(0.333239 -0.0759379 0)
(0.454514 -0.0717589 0)
(0.571624 -0.0677212 6.70081e-19)
(0.684396 -0.063842 6.52673e-19)
(0.792743 -0.0601163 0)
(0.896657 -0.0565716 6.23739e-19)
(0.996178 -0.0532248 0)
(1.09136 -0.0500322 0)
(1.18229 -0.0469846 5.90462e-19)
(1.26911 -0.0441163 0)
(1.35195 -0.0414266 5.72533e-19)
(1.43093 -0.0388881 0)
(1.50618 -0.0364914 0)
(1.57784 -0.0342281 5.50515e-19)
(1.64606 -0.032098 0)
(1.71099 -0.0300972 5.38208e-19)
(1.77277 -0.0282146 0)
(1.83152 -0.026439 0)
(1.88737 -0.0247651 0)
(1.94042 -0.0231835 -5.18063e-19)
(1.99078 -0.0216835 0)
(2.03851 -0.0202527 5.09883e-19)
(2.08364 -0.0188758 0)
(2.12617 -0.0175259 0)
(2.16598 -0.0161699 0)
(2.20282 -0.0147468 0)
(2.23623 -0.0131619 0)
(2.26494 -0.0112272 0)
(2.28806 -0.00828938 0)
(2.29614 -0.00284295 -9.97544e-19)
(2.29062 0.0102041 0)
(2.18218 0.0290537 0)
(0.0154571 -0.0576213 1.43343e-18)
(0.036239 -0.0732458 -6.38021e-19)
(0.0468105 -0.0663508 0)
(0.0536166 -0.0543158 1.92357e-19)
(0.0562081 -0.0396122 0)
(0.0548775 -0.023597 7.54504e-20)
(0.0501199 -0.00726562 -1.43536e-19)
(0.0421869 0.00872421 -1.39381e-19)
(0.0312917 0.0237741 0)
(0.0171362 0.0373407 -1.3734e-19)
(-0.000408151 0.0491137 -6.90938e-20)
(-0.0214031 0.0590598 0)
(-0.0458628 0.0673917 0)
(-0.073787 0.0744745 0)
(-0.105181 0.0807544 0)
(-0.139895 0.0866318 -6.04111e-20)
(-0.177602 0.0924262 0)
(-0.218146 0.0983619 1.11518e-19)
(-0.26147 0.104532 0)
(-0.307441 0.110905 0)
(-0.355888 0.117346 -9.81186e-20)
(-0.406592 0.123667 0)
(-0.459286 0.129664 8.96463e-20)
(-0.513651 0.135148 -4.29975e-20)
(-0.56932 0.139933 4.10922e-20)
(-0.625903 0.143868 -3.92925e-20)
(-0.683006 0.14684 -3.7604e-20)
(-0.740242 0.148799 0)
(-0.797258 0.149718 0)
(-0.853727 0.149598 3.32019e-20)
(-0.90937 0.148497 -3.16768e-20)
(-0.963962 0.146518 0)
(-1.01733 0.143785 0)
(-1.06935 0.140438 2.87517e-20)
(-1.11994 0.136613 0)
(-1.16905 0.132443 0)
(-1.21668 0.128046 -2.62719e-20)
(-1.26282 0.123529 0)
(-1.30752 0.118982 2.47116e-20)
(-1.35081 0.114484 -4.86741e-20)
(-1.39276 0.110089 0)
(-1.43343 0.105845 0)
(-1.47288 0.101778 -9.08025e-20)
(-1.5112 0.0979111 -8.90349e-20)
(-1.54844 0.0942505 -8.73795e-20)
(-1.58468 0.0908032 4.27276e-20)
(-1.61999 0.0875635 -4.23586e-20)
(-1.65443 0.0845289 -1.24631e-19)
(-1.68805 0.0816869 8.16502e-20)
(-1.72092 0.0790307 4.03583e-20)
(-1.75307 0.0765437 0)
(-1.78457 0.0742173 -3.91584e-20)
(-1.81546 0.0720352 3.82903e-20)
(-1.84578 0.0699896 0)
(-1.87556 0.0680652 0)
(-1.90485 0.0662562 0)
(-1.93368 0.0645494 -3.64515e-20)
(-1.96207 0.0629413 0)
(-1.99005 0.0614204 7.06466e-20)
(-2.01766 0.059985 0)
(-2.04491 0.0586257 6.86907e-20)
(-2.07184 0.0573431 0)
(-2.09845 0.0561297 -6.67601e-20)
(-2.12479 0.0549872 0)
(-2.15086 0.0539094 6.48388e-20)
(-2.1767 0.0528992 -3.18542e-20)
(-2.20233 0.0519521 0)
(-2.22777 0.0510719 -6.19484e-20)
(-2.25304 0.0502554 -3.05654e-20)
(-2.27818 0.0495061 -3.00791e-20)
(-2.3032 0.0488213 0)
(-2.32814 0.0482031 -2.89685e-20)
(-2.35301 0.0476479 -2.86197e-20)
(-2.37784 0.0471548 0)
(-2.40265 0.0467186 2.76474e-20)
(-2.42747 0.0463363 -5.41881e-20)
(-2.45231 0.0460047 0)
(-2.47718 0.0457199 -2.61957e-20)
(-2.50209 0.0454752 0)
(-2.52705 0.0452616 7.55619e-20)
(-2.55207 0.0450746 0)
(-2.57713 0.044905 -7.27162e-20)
(-2.60223 0.044745 -2.38292e-20)
(-2.62736 0.0445811 2.31885e-20)
(-2.6525 0.0444118 4.54553e-20)
(-2.67761 0.0442271 -4.45504e-20)
(-2.70266 0.0440184 0)
(-2.72755 0.0437602 0)
(-2.75221 0.0434493 0)
(-2.77655 0.0430669 1.24463e-19)
(-2.8005 0.0425633 4.0902e-20)
(-2.82399 0.0418976 -4.01606e-20)
(-2.84689 0.0410536 0)
(-2.86907 0.0400193 -3.81229e-20)
(-2.89037 0.0387687 3.80835e-20)
(-2.91063 0.0372814 3.74396e-20)
(-2.92968 0.0355298 0)
(-2.94733 0.0334966 0)
(-2.9634 0.0311578 0)
(-2.97786 0.0285036 3.51195e-20)
(-2.99061 0.0254954 0)
(-3.00138 0.0221476 -6.77876e-20)
(-3.00994 0.0184797 -1.0075e-19)
(-3.01638 0.014489 6.62533e-20)
(-3.02071 0.0102548 0)
(-3.02284 0.00588294 3.21605e-20)
(-3.02263 0.00145498 0)
(-3.0192 -0.00303588 6.35148e-20)
(-3.01228 -0.00762996 -3.11933e-20)
(-3.00182 -0.0124357 -3.08223e-20)
(-2.98733 -0.017483 0)
(-2.96864 -0.0227104 -9.09931e-20)
(-2.9456 -0.0281093 5.96041e-20)
(-2.91806 -0.0337005 2.94348e-20)
(-2.88586 -0.0393776 0)
(-2.84866 -0.0451196 2.81801e-20)
(-2.8063 -0.0510162 8.21169e-20)
(-2.75876 -0.0569014 0)
(-2.70594 -0.0627839 5.10768e-20)
(-2.64775 -0.0687392 4.88452e-20)
(-2.58402 -0.0746463 4.62908e-20)
(-2.51476 -0.0805164 0)
(-2.44 -0.0862975 0)
(-2.35971 -0.0919678 0)
(-2.27389 -0.0974271 -1.63908e-20)
(-2.18267 -0.102676 -1.30243e-20)
(-2.08619 -0.107667 0)
(-1.98464 -0.112385 -1.57183e-20)
(-1.87825 -0.116786 -9.10231e-21)
(-1.7673 -0.120853 0)
(-1.6521 -0.124541 8.1142e-21)
(-1.53299 -0.127835 2.94902e-20)
(-1.41037 -0.130704 -2.64627e-20)
(-1.28463 -0.133141 -3.15742e-20)
(-1.1562 -0.135135 0)
(-1.02554 -0.136694 0)
(-0.893102 -0.137816 0)
(-0.759339 -0.138529 -8.45769e-20)
(-0.624712 -0.138859 9.16381e-20)
(-0.489658 -0.138841 2.18348e-19)
(-0.354565 -0.138506 -1.27609e-19)
(-0.219866 -0.13792 1.35953e-19)
(-0.0853319 -0.137193 1.56817e-19)
(0.0489826 -0.136506 0)
(0.181727 -0.135925 0)
(0.311098 -0.13418 -1.74032e-19)
(0.43628 -0.130475 0)
(0.557667 -0.125663 0)
(0.675762 -0.120394 3.94772e-19)
(0.790441 -0.114949 0)
(0.901518 -0.109467 2.06327e-19)
(1.00885 -0.104039 -2.16481e-19)
(1.11236 -0.0987117 0)
(1.212 -0.0935269 2.21029e-19)
(1.30776 -0.0885173 0)
(1.39968 -0.0836952 0)
(1.48781 -0.0790647 -2.36203e-19)
(1.57222 -0.0746482 4.74816e-19)
(1.65298 -0.0704446 -2.41765e-19)
(1.73018 -0.0664379 0)
(1.80396 -0.0626286 0)
(1.87443 -0.0590185 2.4586e-19)
(1.94171 -0.0556094 0)
(2.00592 -0.0523897 2.49708e-19)
(2.06719 -0.04934 0)
(2.12563 -0.0464497 0)
(2.18134 -0.0437114 0)
(2.23442 -0.041109 2.57446e-19)
(2.28497 -0.0386227 0)
(2.33303 -0.0362303 -2.59572e-19)
(2.37865 -0.0338961 0)
(2.4218 -0.0315663 0)
(2.46238 -0.0291582 5.23703e-19)
(2.50016 -0.0265506 -5.25829e-19)
(2.53473 -0.0234957 0)
(2.56518 -0.0196044 0)
(2.59064 -0.0136236 0)
(2.60754 -0.00329997 1.62524e-18)
(2.62437 0.0178484 0)
(2.61333 0.0565584 -1.12362e-18)
(0.00898951 -0.102594 -7.93447e-22)
(0.0200311 -0.0972302 6.29854e-19)
(0.0206285 -0.0745449 0)
(0.0183773 -0.0522745 -2.62128e-19)
(0.01264 -0.0303122 0)
(0.00396662 -0.00857799 0)
(-0.00718375 0.0127315 8.20395e-23)
(-0.020631 0.0333518 8.29391e-20)
(-0.036392 0.0530392 7.8893e-20)
(-0.0545843 0.0715371 7.6175e-20)
(-0.0753716 0.0886159 0)
(-0.0989375 0.104164 0)
(-0.125448 0.118235 -7.04317e-20)
(-0.155017 0.131035 -1.37559e-19)
(-0.187674 0.142864 1.34156e-19)
(-0.223331 0.154053 0)
(-0.261794 0.164856 1.26876e-19)
(-0.302815 0.175398 -6.16561e-20)
(-0.346117 0.185694 0)
(-0.391399 0.195646 1.1502e-19)
(-0.438341 0.20507 5.56369e-20)
(-0.486616 0.213738 -1.07017e-19)
(-0.53589 0.221415 -5.16903e-20)
(-0.585836 0.227886 0)
(-0.636137 0.232982 9.57004e-20)
(-0.6865 0.236584 9.22203e-20)
(-0.736665 0.238636 0)
(-0.786401 0.239138 8.57476e-20)
(-0.835494 0.23815 0)
(-0.883785 0.23579 7.98922e-20)
(-0.931174 0.232209 3.87339e-20)
(-0.977585 0.227588 0)
(-1.02297 0.222119 0)
(-1.06729 0.215997 0)
(-1.11054 0.209405 0)
(-1.15271 0.202512 0)
(-1.19382 0.195463 0)
(-1.23387 0.188384 6.33091e-20)
(-1.2729 0.181378 -9.28844e-20)
(-1.31093 0.174529 0)
(-1.34799 0.1679 0)
(-1.38411 0.161537 0)
(-1.41934 0.155468 2.05637e-22)
(-1.4537 0.149711 5.61049e-20)
(-1.48724 0.144272 1.10049e-19)
(-1.52 0.139151 -1.08198e-19)
(-1.55201 0.134339 -5.31271e-20)
(-1.58332 0.129824 5.24812e-20)
(-1.61395 0.125593 -1.81473e-22)
(-1.64395 0.121627 5.07401e-20)
(-1.67335 0.11791 0)
(-1.70218 0.114424 4.93015e-20)
(-1.73048 0.111151 -1.62438e-22)
(-1.75828 0.108076 0)
(-1.78561 0.105181 0)
(-1.81249 0.102454 -4.66671e-20)
(-1.83895 0.0998817 0)
(-1.86501 0.0974528 0)
(-1.8907 0.095157 4.46909e-20)
(-1.91603 0.0929864 8.84457e-20)
(-1.94103 0.0909335 -4.37496e-20)
(-1.96572 0.0889931 0)
(-1.99011 0.0871599 4.25576e-20)
(-2.01423 0.085431 0)
(-2.0381 0.083803 4.11612e-20)
(-2.06173 0.0822746 4.07769e-20)
(-2.08515 0.0808441 -8.01689e-20)
(-2.10837 0.0795114 -3.93967e-20)
(-2.13141 0.0782757 0)
(-2.1543 0.0771364 7.66008e-20)
(-2.17705 0.0760923 0)
(-2.19969 0.0751415 1.11395e-19)
(-2.22223 0.0742816 7.30016e-20)
(-2.24469 0.0735077 7.17964e-20)
(-2.2671 0.072815 -7.05897e-20)
(-2.28947 0.0721966 1.04167e-19)
(-2.31182 0.0716466 0)
(-2.33416 0.0711552 0)
(-2.35649 0.070712 -6.57721e-20)
(-2.37882 0.0703031 -9.69698e-20)
(-2.40117 0.0699178 0)
(-2.42351 0.0695412 3.12177e-20)
(-2.44584 0.0691606 0)
(-2.46816 0.0687593 -8.99639e-20)
(-2.49043 0.0683247 -2.52329e-22)
(-2.51264 0.0678287 2.64661e-22)
(-2.53473 0.0672385 5.65541e-20)
(-2.55667 0.0665303 0)
(-2.57837 0.0657028 -5.44444e-20)
(-2.59974 0.0647188 -3.27556e-22)
(-2.62075 0.0635209 0)
(-2.64132 0.062074 0)
(-2.66136 0.0603573 0)
(-2.68076 0.0583456 5.01065e-20)
(-2.69938 0.0560138 0)
(-2.7171 0.0533341 0)
(-2.73379 0.0502794 0)
(-2.74931 0.046822 0)
(-2.76352 0.0429356 0)
(-2.77631 0.0386026 4.52933e-20)
(-2.78757 0.0339008 0)
(-2.79703 0.0289127 4.45202e-20)
(-2.80449 0.0235208 4.40155e-20)
(-2.80987 0.0177071 -4.35434e-20)
(-2.81296 0.0115479 0)
(-2.81354 0.00505065 -4.26056e-20)
(-2.81128 -0.00179628 0)
(-2.80584 -0.00895991 -4.16812e-20)
(-2.79699 -0.0164674 4.12106e-20)
(-2.78456 -0.0243093 1.21598e-19)
(-2.76821 -0.0324667 0)
(-2.74775 -0.0409427 1.18288e-19)
(-2.723 -0.0497095 3.86101e-20)
(-2.69379 -0.0587536 0)
(-2.65985 -0.0679795 7.45963e-20)
(-2.62104 -0.077293 7.28288e-20)
(-2.57718 -0.0867755 -1.06224e-19)
(-2.52808 -0.0963334 0)
(-2.47379 -0.105874 -3.28418e-20)
(-2.41406 -0.115452 -3.13081e-20)
(-2.34885 -0.124943 -8.92628e-20)
(-2.27814 -0.134331 0)
(-2.20194 -0.143528 0)
(-2.12022 -0.152485 0)
(-2.03303 -0.161099 -2.12959e-20)
(-1.94048 -0.169316 0)
(-1.84273 -0.177075 0)
(-1.73996 -0.18432 9.73418e-21)
(-1.63243 -0.190994 5.60607e-21)
(-1.52043 -0.197048 0)
(-1.40429 -0.202428 0)
(-1.28437 -0.207093 -1.78335e-20)
(-1.16107 -0.211007 0)
(-1.03482 -0.214149 4.07153e-20)
(-0.90608 -0.216506 4.98268e-20)
(-0.775309 -0.218084 0)
(-0.642981 -0.218892 0)
(-0.509568 -0.218967 -9.0236e-20)
(-0.37553 -0.218349 -4.02233e-21)
(-0.241312 -0.217103 -4.17937e-21)
(-0.107203 -0.215336 0)
(0.0264651 -0.213142 -2.98123e-19)
(0.158944 -0.210395 0)
(0.289472 -0.206932 0)
(0.417461 -0.202801 0)
(0.542284 -0.198067 1.93417e-19)
(0.663576 -0.192536 0)
(0.781395 -0.186183 -4.17762e-19)
(0.895816 -0.17929 -2.21621e-19)
(1.00675 -0.172087 0)
(1.11407 -0.164728 -2.38562e-19)
(1.2177 -0.157329 0)
(1.31757 -0.149972 0)
(1.41366 -0.142725 -7.77088e-19)
(1.50599 -0.135641 5.29715e-19)
(1.59458 -0.128754 0)
(1.6795 -0.122079 5.54258e-19)
(1.76081 -0.115649 -2.84772e-19)
(1.83859 -0.109485 0)
(1.91297 -0.103588 0)
(1.98407 -0.0979565 0)
(2.05201 -0.0925893 -9.05069e-19)
(2.11689 -0.0874905 0)
(2.17884 -0.0826493 -3.10067e-19)
(2.23798 -0.0780478 0)
(2.29443 -0.073672 0)
(2.34828 -0.0695099 0)
(2.39964 -0.0655391 0)
(2.44858 -0.0617332 0)
(2.49518 -0.0580579 0)
(2.53946 -0.0544585 -6.5649e-19)
(2.5814 -0.0508526 0)
(2.62093 -0.0471186 -3.33546e-19)
(2.65785 -0.0430676 1.00559e-18)
(2.69185 -0.0383633 0)
(2.72225 -0.0324317 0)
(2.74855 -0.0239894 -6.86513e-19)
(2.76829 -0.0109298 -6.96264e-19)
(2.78647 0.0123337 7.02123e-19)
(2.79203 0.0554416 7.21609e-19)
(-0.000572751 -0.11943 -1.96665e-18)
(-0.000115651 -0.0952697 -7.82165e-19)
(-0.00706832 -0.064713 -2.90682e-19)
(-0.0158895 -0.0364852 -1.03604e-19)
(-0.0270128 -0.00957687 0)
(-0.0401045 0.0165214 1.46228e-19)
(-0.0549972 0.0419297 -6.59187e-20)
(-0.0716606 0.0666027 0)
(-0.090163 0.0904129 -5.8087e-20)
(-0.110622 0.113193 0)
(-0.133179 0.13478 1.0787e-19)
(-0.157987 0.155068 0)
(-0.18518 0.174037 5.12438e-20)
(-0.214839 0.191756 1.00059e-19)
(-0.246964 0.208353 -9.7626e-20)
(-0.281461 0.223967 0)
(-0.318152 0.238702 -9.24999e-20)
(-0.35679 0.252588 0)
(-0.397084 0.265575 0)
(-0.438719 0.277539 -8.41816e-20)
(-0.48138 0.288304 0)
(-0.524759 0.297677 6.90894e-23)
(-0.56857 0.30547 0)
(-0.612553 0.311531 0)
(-0.656483 0.31576 -6.45446e-23)
(-0.700169 0.318118 -6.81534e-20)
(-0.743454 0.318622 -6.57429e-20)
(-0.786217 0.317347 -6.35888e-20)
(-0.828374 0.314422 0)
(-0.869869 0.310031 -1.19043e-19)
(-0.910662 0.304382 0)
(-0.950724 0.297688 -5.59579e-20)
(-0.99004 0.290164 0)
(-1.0286 0.282013 0)
(-1.06639 0.273427 5.14996e-20)
(-1.10342 0.264577 0)
(-1.13968 0.255615 -4.8994e-20)
(-1.17517 0.246668 -8.37319e-23)
(-1.20989 0.237845 9.37084e-20)
(-1.24387 0.229229 -9.16577e-20)
(-1.2771 0.220887 0)
(-1.3096 0.212865 0)
(-1.34138 0.205196 -4.31537e-20)
(-1.37247 0.197897 0)
(-1.40287 0.190976 -4.18332e-20)
(-1.43263 0.184434 4.11489e-20)
(-1.46174 0.178262 4.04984e-20)
(-1.49025 0.172449 0)
(-1.51817 0.166979 -3.9284e-20)
(-1.54553 0.161833 -3.87137e-20)
(-1.57236 0.156993 7.61872e-20)
(-1.59867 0.152438 -3.76327e-20)
(-1.6245 0.148149 -3.71172e-20)
(-1.64986 0.144107 0)
(-1.67479 0.140293 0)
(-1.69929 0.13669 3.56449e-20)
(-1.72339 0.133284 0)
(-1.74711 0.130061 0)
(-1.77047 0.127009 -6.84972e-20)