# vtk DataFile Version 2.0
track0
ASCII
DATASET POLYDATA
POINTS 10920 float
-0.0205 0.001 1e-05
-0.0202034 0.00100022 1e-05
-0.0199069 0.00100067 1e-05
-0.0196103 0.00100132 1e-05
-0.0193137 0.00100216 1e-05
-0.0190172 0.0010032 1e-05
-0.0187132 0.00100461 1e-05
-0.0184093 0.00100572 1e-05
-0.0181054 0.00100681 1e-05
-0.0178015 0.00100785 1e-05
-0.0174976 0.00100886 1e-05
-0.0172058 0.00101001 1e-05
-0.016914 0.00101082 1e-05
-0.0166222 0.0010116 1e-05
-0.0163305 0.00101236 1e-05
-0.0160387 0.00101308 1e-05
-0.0157586 0.00101395 1e-05
-0.0154784 0.00101463 1e-05
-0.0151983 0.00101536 1e-05
-0.0149182 0.00101612 1e-05
-0.0146381 0.00101692 1e-05
-0.0143692 0.00101784 1e-05
-0.0141002 0.00101869 1e-05
-0.0138313 0.0010196 1e-05
-0.0135624 0.00102056 1e-05
-0.0132934 0.00102157 1e-05
-0.0130397 0.00102262 1e-05
-0.0127859 0.00102366 1e-05
-0.0125321 0.00102474 1e-05
-0.0122783 0.00102585 1e-05
-0.0120659 0.00102682 1e-05
-0.0120532 0.00102688 1e-05
-0.0120405 0.00102694 1e-05
-0.0120279 0.00102699 1e-05
-0.0120152 0.00102705 1e-05
-0.0120025 0.00102711 1e-05
-0.0117547 0.00102828 1e-05
-0.0115068 0.00102947 1e-05
-0.0112589 0.00103068 1e-05
-0.0110111 0.00103192 1e-05
-0.0107632 0.00103318 1e-05
-0.0105252 0.0010344 1e-05
-0.0102873 0.00103565 1e-05
-0.0100493 0.00103691 1e-05
-0.00981133 0.00103819 1e-05
-0.00957337 0.00103948 1e-05
-0.00934491 0.00104071 1e-05
-0.00911645 0.00104197 1e-05
-0.00888799 0.00104324 1e-05
-0.00865954 0.00104451 1e-05
-0.00843108 0.00104579 1e-05
-0.00821175 0.00104701 1e-05
-0.00799242 0.00104825 1e-05
-0.00777309 0.00104949 1e-05
-0.00755376 0.00105073 1e-05
-0.00733443 0.00105198 1e-05
-0.00712387 0.00105316 1e-05
-0.0069133 0.00105436 1e-05
-0.00670273 0.00105555 1e-05
-0.00649217 0.00105675 1e-05
-0.0062816 0.00105795 1e-05
-0.00607944 0.00105908 1e-05
-0.00587729 0.00106022 1e-05
-0.00567514 0.00106136 1e-05
-0.00547298 0.0010625 1e-05
-0.00527083 0.00106363 1e-05
-0.00507675 0.0010647 1e-05
-0.00488267 0.00106578 1e-05
-0.0046886 0.00106686 1e-05
-0.00449452 0.00106793 1e-05
-0.00430044 0.001069 1e-05
-0.00411412 0.00107001 1e-05
-0.0039278 0.00107102 1e-05
-0.00374147 0.00107203 1e-05
-0.00355515 0.00107303 1e-05
-0.00336883 0.00107403 1e-05
-0.00318995 0.00107497 1e-05
-0.00301107 0.00107591 1e-05
-0.00283219 0.00107685 1e-05
-0.00265331 0.00107778 1e-05
-0.00247443 0.0010787 1e-05
-0.0023027 0.00107957 1e-05
-0.00213097 0.00108043 1e-05
-0.00195924 0.00108129 1e-05
-0.0017875 0.00108214 1e-05
-0.00161577 0.00108299 1e-05
-0.0014509 0.00108377 1e-05
-0.00128603 0.00108456 1e-05
-0.00112116 0.00108533 1e-05
-0.000956289 0.00108608 1e-05
-0.000791418 0.00108683 1e-05
-0.000633135 0.00108752 1e-05
-0.000474851 0.0010882 1e-05
-0.000316567 0.00108886 1e-05
-0.000158283 0.00108949 1e-05
0 0.00109011 1e-05
0.000105677 0.0010905 1e-05
0.000211355 0.00109089 1e-05
0.000317032 0.00109126 1e-05
0.00042271 0.00109163 1e-05
0.000528387 0.00109198 1e-05
0.000634886 0.00109231 1e-05
0.000741385 0.00109264 1e-05
0.000847885 0.00109297 1e-05
0.000954384 0.00109328 1e-05
0.00106088 0.00109358 1e-05
0.00116821 0.00109387 1e-05
0.00127554 0.00109416 1e-05
0.00138286 0.00109444 1e-05
0.00149019 0.00109471 1e-05
0.00159752 0.00109497 1e-05
0.00170568 0.00109522 1e-05
0.00181384 0.00109547 1e-05
0.001922 0.00109571 1e-05
0.00203016 0.00109593 1e-05
0.00213833 0.00109615 1e-05
0.00224733 0.00109635 1e-05
0.00235633 0.00109656 1e-05
0.00246533 0.00109676 1e-05
0.00257434 0.00109695 1e-05
0.00268334 0.00109713 1e-05
0.00279319 0.0010973 1e-05
0.00290304 0.00109747 1e-05
0.00301289 0.00109764 1e-05
0.00312274 0.0010978 1e-05
0.00323259 0.00109796 1e-05
0.00334329 0.0010981 1e-05
0.003454 0.00109824 1e-05
0.0035647 0.00109839 1e-05
0.0036754 0.00109853 1e-05
0.00378611 0.00109866 1e-05
0.00389767 0.00109878 1e-05
0.00400924 0.0010989 1e-05
0.0041208 0.00109903 1e-05
0.00423237 0.00109914 1e-05
0.00434393 0.00109925 1e-05
0.00445636 0.00109936 1e-05
0.00456879 0.00109946 1e-05
0.00468123 0.00109956 1e-05
0.00479366 0.00109966 1e-05
0.00490609 0.00109975 1e-05
0.0050194 0.00109983 1e-05
0.0051327 0.00109991 1e-05
0.00524601 0.00109999 1e-05
0.00535932 0.00110007 1e-05
0.00547262 0.00110014 1e-05
0.00558681 0.0011002 1e-05
0.005701 0.00110027 1e-05
0.00581518 0.00110033 1e-05
0.00592937 0.00110038 1e-05
0.00604356 0.00110043 1e-05
0.00612289 0.00110047 1e-05
0.00620223 0.0011005 1e-05
0.00628156 0.00110052 1e-05
0.0063609 0.00110055 1e-05
0.00643869 0.00110058 1e-05
0.00647474 0.00110059 1e-05
0.00651078 0.0011006 1e-05
0.00654683 0.00110061 1e-05
0.00658288 0.00110062 1e-05
0.00661893 0.00110062 1e-05
0.0067349 0.00110065 1e-05
0.00685087 0.00110067 1e-05
0.00696684 0.00110069 1e-05
0.00708281 0.00110071 1e-05
0.00719878 0.00110072 1e-05
0.00731565 0.00110072 1e-05
0.00743252 0.00110072 1e-05
0.00754939 0.00110071 1e-05
0.00766626 0.00110071 1e-05
0.00778313 0.00110069 1e-05
0.00790091 0.00110067 1e-05
0.00801869 0.00110065 1e-05
0.00813647 0.00110062 1e-05
0.00825425 0.00110059 1e-05
0.00837203 0.00110055 1e-05
0.00849073 0.0011005 1e-05
0.00860942 0.00110045 1e-05
0.00872812 0.0011004 1e-05
0.00884682 0.00110034 1e-05
0.00896551 0.00110028 1e-05
0.00908513 0.0011002 1e-05
0.00920475 0.00110012 1e-05
0.00932437 0.00110004 1e-05
0.00944398 0.00109996 1e-05
0.0095636 0.00109987 1e-05
0.00968415 0.00109975 1e-05
0.0098047 0.00109965 1e-05
0.00992525 0.00109955 1e-05
0.0100458 0.00109943 1e-05
0.0101663 0.00109932 1e-05
0.0102878 0.00109917 1e-05
0.0104093 0.00109904 1e-05
0.0105308 0.0010989 1e-05
0.0106523 0.00109876 1e-05
0.0107738 0.00109861 1e-05
0.0108962 0.00109842 1e-05
0.0110186 0.00109826 1e-05
0.0111411 0.00109809 1e-05
0.0112635 0.00109791 1e-05
0.0113859 0.00109773 1e-05
0.0115093 0.00109751 1e-05
0.0116327 0.00109731 1e-05
0.0117561 0.00109711 1e-05
0.0118795 0.0010969 1e-05
0.0120028 0.00109669 1e-05
0.0121272 0.00109642 1e-05
0.0122515 0.00109619 1e-05
0.0123759 0.00109595 1e-05
0.0125002 0.00109571 1e-05
0.0126245 0.00109545 1e-05
0.0127498 0.00109515 1e-05
0.0128752 0.00109488 1e-05
0.0130005 0.0010946 1e-05
0.0131258 0.00109432 1e-05
0.0132511 0.00109403 1e-05
0.0133774 0.00109369 1e-05
0.0135036 0.00109338 1e-05
0.0136299 0.00109306 1e-05
0.0137562 0.00109273 1e-05
0.0138825 0.0010924 1e-05
0.0140098 0.00109202 1e-05
0.014137 0.00109166 1e-05
0.0142643 0.0010913 1e-05
0.0143915 0.00109093 1e-05
0.0145188 0.00109055 1e-05
0.0146471 0.00109012 1e-05
0.0147753 0.00108972 1e-05
0.0149036 0.00108932 1e-05
0.0150318 0.0010889 1e-05
0.0151601 0.00108848 1e-05
0.0152893 0.00108801 1e-05
0.0154186 0.00108756 1e-05
0.0155478 0.00108711 1e-05
0.0156771 0.00108665 1e-05
0.0158063 0.00108617 1e-05
0.0159366 0.00108566 1e-05
0.0160668 0.00108516 1e-05
0.0161971 0.00108466 1e-05
0.0163274 0.00108415 1e-05
0.0164576 0.00108363 1e-05
0.0165889 0.00108307 1e-05
0.0167201 0.00108252 1e-05
0.0168514 0.00108197 1e-05
0.0169827 0.00108141 1e-05
0.0171139 0.00108083 1e-05
0.0172462 0.00108023 1e-05
0.0173785 0.00107963 1e-05
0.0175108 0.00107903 1e-05
0.0176431 0.00107842 1e-05
0.0177754 0.00107779 1e-05
0.0179087 0.00107713 1e-05
0.018042 0.00107648 1e-05
0.0181753 0.00107583 1e-05
0.0183087 0.00107517 1e-05
0.018442 0.00107449 1e-05
0.0185763 0.00107378 1e-05
0.0187107 0.00107308 1e-05
0.018845 0.00107237 1e-05
0.0189794 0.00107165 1e-05
0.0191137 0.00107092 1e-05
0.0192491 0.00107016 1e-05
0.0193845 0.0010694 1e-05
0.0195199 0.00106864 1e-05
0.0196553 0.00106786 1e-05
0.0197907 0.00106707 1e-05
0.0199272 0.00106627 1e-05
0.0200636 0.00106545 1e-05
0.0202001 0.00106463 1e-05
0.0203365 0.0010638 1e-05
0.020473 0.00106295 1e-05
0.0206105 0.00106209 1e-05
0.020748 0.00106122 1e-05
0.0208855 0.00106034 1e-05
0.021023 0.00105945 1e-05
0.0211606 0.00105855 1e-05
0.0212991 0.00105764 1e-05
0.0214377 0.00105671 1e-05
0.0215763 0.00105577 1e-05
0.0217149 0.00105481 1e-05
0.0218535 0.00105386 1e-05
0.0219931 0.00105289 1e-05
0.0221328 0.00105191 1e-05
0.0222724 0.00105091 1e-05
0.0224121 0.00104989 1e-05
0.0225517 0.00104888 1e-05
0.0226925 0.00104786 1e-05
0.0228332 0.00104682 1e-05
0.022974 0.00104575 1e-05
0.0231147 0.00104468 1e-05
0.0232555 0.00104361 1e-05
0.0233973 0.00104254 1e-05
0.0235391 0.00104143 1e-05
0.023681 0.00104031 1e-05
0.0238228 0.00103918 1e-05
0.0239647 0.00103805 1e-05
0.0241076 0.00103691 1e-05
0.0242505 0.00103575 1e-05
0.0243935 0.00103457 1e-05
0.0245364 0.00103337 1e-05
0.0246794 0.00103219 1e-05
0.0248234 0.001031 1e-05
0.0249675 0.00102978 1e-05
0.0251115 0.00102853 1e-05
0.0252556 0.00102728 1e-05
0.0253996 0.00102603 1e-05
0.0255448 0.00102478 1e-05
0.02569 0.0010235 1e-05
0.0258351 0.00102219 1e-05
0.0259803 0.00102088 1e-05
0.0261255 0.00101957 1e-05
0.0262718 0.00101827 1e-05
0.0264181 0.00101692 1e-05
0.0265644 0.00101556 1e-05
0.0267107 0.00101419 1e-05
0.026857 0.00101282 1e-05
0.0270044 0.00101145 1e-05
0.0271519 0.00101005 1e-05
0.0272993 0.00100862 1e-05
0.0274468 0.00100719 1e-05
0.0275942 0.00100576 1e-05
0.0277428 0.00100433 1e-05
0.0278914 0.00100286 1e-05
0.0280399 0.00100138 1e-05
0.0281885 0.000999889 1e-05
0.0283371 0.000998394 1e-05
0.0284869 0.0009969 1e-05
0.0286366 0.000995371 1e-05
0.0287863 0.000993827 1e-05
0.0289361 0.000992274 1e-05
0.0290858 0.000990716 1e-05
0.0292367 0.000989158 1e-05
0.0293876 0.000987563 1e-05
0.0295385 0.000985958 1e-05
0.0296894 0.000984343 1e-05
0.0298403 0.000982719 1e-05
0.0299924 0.000981095 1e-05
0.0301445 0.000979436 1e-05
0.0302966 0.000977767 1e-05
0.0304486 0.000976089 1e-05
0.0306007 0.000974402 1e-05
0.030754 0.00097271 1e-05
0.0309072 0.000970987 1e-05
0.0310605 0.000969254 1e-05
0.0312138 0.000967511 1e-05
0.031367 0.000965759 1e-05
0.0315215 0.000963998 1e-05
0.0316759 0.000962209 1e-05
0.0318304 0.000960411 1e-05
0.0319848 0.000958602 1e-05
0.0321393 0.000956782 1e-05
0.0322949 0.00095495 1e-05
0.0324506 0.000953094 1e-05
0.0326062 0.000951228 1e-05
0.0327619 0.000949351 1e-05
0.0329175 0.000947463 1e-05
0.0330744 0.000945557 1e-05
0.0332313 0.000943631 1e-05
0.0333881 0.000941694 1e-05
0.033545 0.000939746 1e-05
[...]
POINT_DATA 10920
 FIELD attributes 2
p 1 10920 float
-6.12141 -6.11693 -6.10941 -6.10179 -6.09409 -6.08175 -6.08811 -6.09968 -6.11125 -6.12282 -6.14827 -6.16793 -6.20067 -6.23341 -6.26615 -6.30571 -6.32016 -6.34578 -6.37142 -6.39706 -6.42791 -6.44683 -6.47187 -6.49692 -6.52198 -6.54959 -6.57296 -6.59838 -6.6238 -6.64923 -6.67053 -6.6718 -6.67307 -6.67434 -6.67561 -6.67684 -6.69974 -6.72262 -6.74551 -6.76839 -6.79042 -6.81015 -6.82932 -6.8485 -6.86768 -6.8855 -6.90327 -6.9202 -6.93714 -6.95408 -6.96947 -6.98616 -7.00187 -7.01758 -7.03329 -7.04739 -7.06325 -7.07805 -7.09284 -7.10763 -7.12084 -7.13595 -7.15003 -7.16411 -7.17818 -7.19078 -7.20536 -7.219 -7.23265 -7.24629 -7.25862 -7.27291 -7.28645 -7.29998 -7.31352 -7.3259 -7.34017 -7.35386 -7.36756 -7.38125 -7.39389 -7.40836 -7.42261 -7.43686 -7.45111 -7.46434 -7.47909 -7.49385 -7.50862 -7.52339 -7.53669 -7.5499 -7.56228 -7.57466 -7.58703 -7.59715 -7.60478 -7.61061 -7.61644 -7.62227 -7.62668 -7.63011 -7.63143 -7.63275 -7.63406 -7.63466 -7.63671 -7.63786 -7.63902 -7.64017 -7.64133 -7.64539 -7.64769 -7.65 -7.6523 -7.65338 -7.65796 -7.6597 -7.66145 -7.66319 -7.66272 -7.66647 -7.66757 -7.66867 -7.66978 -7.66867 -7.6718 -7.67296 -7.67412 -7.67528 -7.67467 -7.67733 -7.67859 -7.67984 -7.68109 -7.68111 -7.68308 -7.68411 -7.68514 -7.68617 -7.68646 -7.68772 -7.68845 -7.68918 -7.68991 -7.69031 -7.69112 -7.69171 -7.6923 -7.69289 -7.69338 -7.69383 -7.69422 -7.69461 -7.695 -7.69538 -7.69556 -7.69574 -7.69592 -7.69609 -7.69625 -7.69684 -7.69741 -7.69797 -7.69854 -7.69902 -7.69968 -7.70026 -7.70084 -7.70141 -7.7019 -7.70258 -7.70321 -7.70385 -7.70448 -7.7051 -7.70573 -7.70644 -7.70715 -7.70786 -7.70879 -7.70924 -7.71004 -7.71084 -7.71164 -7.713 -7.71315 -7.71404 -7.71494 -7.71583 -7.71776 -7.71749 -7.71849 -7.71948 -7.72047 -7.72308 -7.72232 -7.72341 -7.72451 -7.72561 -7.72899 -7.72766 -7.72886 -7.73007 -7.73127 -7.7355 -7.73357 -7.73489 -7.73621 -7.73753 -7.74263 -7.74011 -7.74154 -7.74297 -7.74439 -7.75038 -7.74741 -7.74879 -7.75035 -7.75238 -7.75879 -7.75581 -7.75685 -7.75856 -7.76126 -7.76801 -7.76515 -7.76583 -7.76769 -7.77105 -7.77796 -7.77528 -7.77559 -7.77756 -7.78155 -7.78852 -7.78604 -7.78601 -7.7881 -7.79269 -7.79969 -7.79753 -7.79723 -7.79946 -7.80463 -7.81162 -7.80989 -7.80943 -7.81182 -7.81746 -7.82432 -7.82305 -7.8225 -7.82502 -7.83101 -7.83766 -7.83683 -7.83625 -7.83889 -7.84514 -7.85157 -7.85119 -7.85081 -7.85366 -7.85986 -7.86605 -7.86613 -7.8662 -7.86917 -7.87513 -7.88109 -7.88161 -7.88213 -7.88522 -7.89094 -7.89666 -7.89761 -7.89856 -7.90177 -7.90726 -7.91274 -7.91411 -7.91548 -7.9188 -7.92407 -7.92933 -7.9311 -7.93286 -7.93628 -7.94134 -7.94641 -7.94854 -7.95066 -7.95418 -7.95906 -7.96395 -7.96641 -7.96887 -7.97247 -7.9772 -7.98192 -7.98468 -7.98752 -7.99123 -7.99572 -8.00032 -8.00334 -8.00653 -8.01031 -8.01462 -8.0191 -8.02236 -8.02582 -8.02968 -8.03385 -8.03825 -8.04171 -8.0454 -8.04931 -8.05341 -8.05775 -8.06137 -8.06522 -8.0692 -8.07327 -8.07756 -8.08134 -8.08531 -8.08934 -8.0934 -8.09768 -8.1016 -8.10567 -8.10974 -8.11382 -8.11806 -8.12213 -8.12625 -8.13037 -8.13449 -8.13866 -8.14283 -8.14698 -8.15113 -8.15528 -8.15942 -8.16362 -8.16778 -8.17195 -8.17612 -8.18025 -8.18445 -8.18862 -8.19279 -8.19697 -8.20111 -8.20529 -8.20946 -8.21362 -8.21779 -8.22194 -8.22606 -8.23017 -8.23429 -8.2384 -8.24235 -8.24242 -8.24248 -8.24255 -8.24261 -8.24268 -8.2468 -8.25093 -8.25505 -8.25918 -8.26334 -8.2674 -8.27148 -8.27556 -8.27964 -8.28379 -8.28777 -8.29179 -8.29582 -8.29984 -8.30395 -8.30786 -8.31181 -8.31576 -8.31972 -8.32377 -8.32759 -8.33146 -8.33532 -8.33919 -8.34315 -8.3469 -8.35065 -8.35441 -8.35818 -8.36203 -8.36567 -8.36931 -8.37294 -8.3766 -8.3803 -8.38382 -8.38733 -8.39082 -8.39433 -8.39787 -8.40126 -8.40462 -8.40795 -8.41129 -8.41464 -8.41787 -8.42108 -8.42423 -8.42738 -8.43052 -8.43357 -8.43661 -8.43955 -8.44247 -8.44538 -8.44822 -8.45106 -8.45377 -8.45643 -8.45908 -8.46167 -8.46427 -8.46674 -8.46911 -8.47149 -8.47381 -8.47614 -8.47835 -8.48042 -8.4825 -8.48454 -8.48658 -8.48851 -8.49025 -8.492 -8.49371 -8.49543 -8.49703 -8.49843 -8.49982 -8.50119 -8.50253 -8.50376 -8.50484 -8.50585 -8.50685 -8.50778 -8.50863 -8.50936 -8.50996 -8.51056 -8.51104 -8.51146 -8.51183 -8.51198 -8.51214 -8.51211 -8.51207 -8.51203 -8.51171 -8.51136 -8.51081 -8.51027 -8.50973 -8.50897 -8.50805 -8.50697 -8.50589 -8.50482 -8.50361 -8.50206 -8.50041 -8.49876 -8.49712 -8.49544 -8.49458 -8.49369 -8.4928 -8.49191 -8.49105 -8.48971 -8.48837 -8.48703 -8.4857 -8.4843 -8.48153 -8.47868 -8.47584 -8.473 -8.46997 -8.46669 -8.46316 -8.45963 -8.45611 -8.45226 -8.44844 -8.44419 -8.43994 -8.4357 -8.43095 -8.4265 -8.42156 -8.41656 -8.41139 -8.40585 -8.40062 -8.39508 -8.38927 -8.38312 -8.37674 -8.3707 -8.36454 -8.35789 -8.35068 -8.34342 -8.33651 -8.32961 -8.32204 -8.31385 -8.30567 -8.29786 -8.29005 -8.28158 -8.27242 -8.26327 -8.25451 -8.24576 -8.23633 -8.22617 -8.21601 -8.20626 -8.19634 -8.18585 -8.17488 -8.16367 -8.15288 -8.14164 -8.13007 -8.11832 -8.10601 -8.09415 -8.08151 -8.06882 -8.05614 -8.04282 -8.02957 -8.01571 -8.00185 -7.988 -7.97386 -7.96139 -7.94863 -7.93587 -7.92312 -7.91118 -7.90874 -7.9063 -7.90386 -7.90143 -7.89893 -7.88284 -7.86669 -7.85056 -7.83443 -7.81792 -7.80091 -7.78349 -7.76609 -7.74869 -7.73053 -7.71251 -7.69387 -7.67515 -7.65612 -7.63655 -7.6172 -7.59762 -7.57756 -7.55675 -7.53579 -7.51506 -7.49435 -7.47281 -7.45043 -7.42805 -7.40592 -7.38381 -7.36083 -7.337 -7.31317 -7.2896 -7.26576 -7.24122 -7.21629 -7.19099 -7.16596 -7.14012 -7.11408 -7.08806 -7.06138 -7.03451 -7.00695 -6.9794 -6.95187 -6.9242 -6.91751 -6.91068 -6.90385 -6.89702 -6.89031 -6.86812 -6.84595 -6.82378 -6.80161 -6.77913 -6.7489 -6.71841 -6.68793 -6.65746 -6.62622 -6.5947 -6.56279 -6.53077 -6.49833 -6.4655 -6.43242 -6.39936 -6.36569 -6.33131 -6.29691 -6.26228 -6.22765 -6.19234 -6.15639 -6.12044 -6.08424 -6.0478 -6.01079 -5.9736 -5.93611 -5.89836 -5.85985 -5.8213 -5.78277 -5.74397 -5.7186 -5.69289 -5.66719 -5.6415 -5.61697 -5.60243 -5.58788 -5.57334 -5.5588 -5.54406 -5.50278 -5.46137 -5.41996 -5.37858 -5.33642 -5.29399 -5.25122 -5.20836 -5.16506 -5.12137 -5.0775 -5.03364 -4.98924 -4.94418 -4.89911 -4.85383 -4.80858 -4.76261 -4.71627 -4.66987 -4.62326 -4.57618 -4.52887 -4.48157 -4.43396 -4.39451 -4.35464 -4.31479 -4.27495 -4.23723 -4.22813 -4.21904 -4.20994 -4.20084 -4.19164 -4.14207 -4.09246 -4.04286 -3.99328 -3.94308 -3.89262 -3.84199 -3.7913 -3.74024 -3.68892 -3.63741 -3.58591 -3.53408 -3.48186 -3.42961 -3.37714 -3.32459 -3.27166 -3.21869 -3.16561 -3.11228 -3.05856 -3.00486 -2.95116 -2.89743 -2.88743 -2.87737 -2.86732 -2.85727 -2.84732 -2.80297 -2.75863 -2.7143 -2.66998 -2.62539 -2.57044 -2.51549 -2.46055 -2.40548 -2.35022 -2.29474 -2.23928 -2.18379 -2.12817 -2.07252 -2.01663 -1.96072 -1.90472 -1.84877 -1.79285 -1.73666 -1.68043 -1.62421 -1.56801 -1.51178 -1.51084 -1.50991 -1.50897 -1.50803 -1.50709 -1.4516 -1.39612 -1.34065 -1.28519 -1.22968 -1.17302 -1.11652 -1.06012 -1.00376 -0.947391 -0.890793 -0.834207 -0.777789 -0.721649 -0.665473 -0.609051 -0.552765 -0.496573 -0.440392 -0.384433 -0.356809 -0.329319 -0.301831 -0.274345 -0.247363 -0.218795 -0.190229 -0.161666 -0.133105 -0.104627 -0.0487031 0.0069314 0.0625573 0.118073 0.173466 0.229019 0.284563 0.33968 0.394485 0.44932 0.504328 0.559225 0.613879 0.668437 0.72265 0.763615 0.804306 0.844995 0.88568 0.925582 0.939144 0.952706 0.966268 0.979829 0.993325 1.04714 1.10076 1.15438 1.20792 1.26122 1.31462 1.36797 1.42078 1.47327 1.52577 1.57839 1.63096 1.68315 1.73509 1.78675 1.83371 1.88027 1.92682 1.97338 2.01939 2.02432 2.02926 2.0342 2.03913 2.04403 2.09492 2.14573 2.19654 2.24732 2.29774 2.34822 2.39853 2.44844 2.49795 2.54746 2.59704 2.64662 2.69576 2.74452 2.79311 2.84178 2.89001 2.93823 2.98645 3.03464 3.03673 3.03881 3.04088 3.04296 3.04504 3.09055 3.13607 3.18159 3.22711 3.27225 3.31949 3.36643 3.4131 3.4594 3.50565 3.55195 3.59825 3.6442 3.68954 3.73485 3.78023 3.82527 3.87023 3.91519 3.95992 3.97076 3.98149 3.99223 4.00296 4.01372 4.04726 4.0808 4.11433 4.14787 4.18113 4.22513 4.26867 4.31214 4.35537 4.39846 4.44161 4.48476 4.52751 4.56978 4.61203 4.65437 4.69652 4.73852 4.78052 4.82207 4.84521 4.86819 4.89117 4.91414 4.9373 4.95563 4.97397 4.9923 5.01064 5.02884 5.06991 5.11068 5.15144 5.19212 5.23258 5.27315 5.31372 5.35382 5.39368 5.43352 5.47349 5.51342 5.55315 5.59269 5.63199 5.67086 5.70955 5.74825 5.78694 5.8261 5.82654 5.82699 5.82744 5.82789 5.82834 5.86732 5.90629 5.94526 5.98423 6.02304 6.06197 6.10076 6.13937 6.17789 6.21639 6.25502 6.29365 6.33223 6.37054 6.40884 6.44725 6.48566 6.52408 6.56249 6.60081 6.61073 6.62067 6.63061 6.64055 6.65048 6.67895 6.70741 6.73588 6.76434 6.79284 6.83144 6.8699 6.90833 6.94684 6.98539 7.02406 7.06272 7.10147 7.1402 7.17893 7.21777 7.25676 7.29584 7.33492 7.37398 7.38795 7.40203 7.41611 7.4302 7.44419 7.46953 7.49488 7.52022 7.54557 7.57112 7.61092 7.65075 7.69058 7.73065 7.77086 7.81115 7.85145 7.89206 7.93286 7.97367 8.01455 8.05581 8.09719 8.13858 8.18003 8.1874 8.19486 8.20233 8.2098 8.21723 8.25179 8.28636 8.32092 8.35553 8.39057 8.43319 8.47589 8.5187 8.5621 8.60555 8.64901 8.69253 8.73664 8.78086 8.82523 8.85572 8.88661 8.91756 8.94852 8.97888 8.99304 9.00719 9.02135 9.03554 9.04991 9.09553 9.14133 9.18713 9.23328 9.27979 9.32626 9.37274 9.41971 9.4671 9.51452 9.55918 9.60433 9.64958 9.69483 9.73974 9.74254 9.74535 9.74815 9.75095 9.75379 9.80238 9.85099 9.8996 9.94838 9.99758 10.0467 10.0958 10.1452 10.1949 10.2446 10.2942 10.3441 10.3941 10.4441 10.4942 10.499 10.5039 10.5087 10.5136 10.5185 10.5636 10.6088 10.654 10.6991 10.7442 10.7939 10.8436 10.8943 10.9464 10.9983 11.05 11.0987 11.1427 11.1866 11.226 11.2444 11.2699 11.2959 11.322 11.3503 11.3752 11.4002 11.4251 11.4503 11.4832 11.5462 11.601 11.654 11.6844 11.7135 11.7424 11.7743 11.8109 11.8474 11.8848 11.889 11.8932 11.8974 11.9016 11.9059 11.9414 11.9768 12.0122 12.0475 12.0827 12.122 12.1612 12.1978 12.2315 12.2651 12.2879 12.3094 12.3301 12.3508 12.3747 12.3841 12.3934 12.4028 12.4119 12.4205 12.4486 12.4754 12.5021 12.527 12.5509 12.5734 12.5957 12.6149 12.6325 12.6492 12.6598 12.6681 12.6758 12.6835 12.6926 12.696 12.6995 12.7029 12.7062 12.7087 12.7143 12.7184 12.7223 12.7243 12.7238 12.72 12.7161 12.7083 12.6966 12.6848 12.6696 12.6518 12.6309 12.6098 12.5851 12.5651 12.5414 12.5176 12.4939 12.4642 12.4554 12.4466 12.4378 12.429 12.4189 12.3742 12.3278 12.2813 12.2343 12.1811 12.1233 12.0629 12 11.9316 11.8617 11.7868 11.7117 11.6302 11.5425 11.4546 11.3613 11.2668 11.1658 11.0611 10.9544 10.8419 10.7229 10.6016 10.4802 10.3526 10.216 10.074 9.93186 9.78969 9.64567 9.56278 9.47688 9.39097 9.30506 9.20017 9.12352 9.04685 8.97016 8.89344 8.81419 8.62703 8.43885 8.25061 8.06229 7.87088 7.66391 7.43985 7.21564 6.99129 6.74057 6.48022 6.23638 5.99475 5.75884 5.53735 5.30818 5.02966 4.70638 4.31943 3.8919 3.44893 3.03805 2.76333 2.63753 2.53561 2.42973 2.32412 1.81149 0.90507 0