# vtk DataFile Version 2.0
track0
ASCII
DATASET POLYDATA
POINTS 10920 float
-0.0205 0.001 1e-05
-0.0202034 0.00100022 1e-05
-0.0199069 0.00100067 1e-05
-0.0196103 0.00100132 1e-05
-0.0193137 0.00100216 1e-05
-0.0190172 0.0010032 1e-05
-0.0187132 0.00100461 1e-05
-0.0184093 0.00100572 1e-05
-0.0181054 0.00100681 1e-05
-0.0178015 0.00100785 1e-05
-0.0174976 0.00100886 1e-05
-0.0172058 0.00101001 1e-05
-0.016914 0.00101082 1e-05
-0.0166222 0.0010116 1e-05
-0.0163305 0.00101236 1e-05
-0.0160387 0.00101308 1e-05
-0.0157586 0.00101395 1e-05
-0.0154784 0.00101463 1e-05
-0.0151983 0.00101536 1e-05
-0.0149182 0.00101612 1e-05
-0.0146381 0.00101692 1e-05
-0.0143692 0.00101784 1e-05
-0.0141002 0.00101869 1e-05
-0.0138313 0.0010196 1e-05
-0.0135624 0.00102056 1e-05
-0.0132934 0.00102157 1e-05
-0.0130397 0.00102262 1e-05
-0.0127859 0.00102366 1e-05
-0.0125321 0.00102474 1e-05
-0.0122783 0.00102585 1e-05
-0.0120659 0.00102682 1e-05
-0.0120532 0.00102688 1e-05
-0.0120405 0.00102694 1e-05
-0.0120279 0.00102699 1e-05
-0.0120152 0.00102705 1e-05
-0.0120025 0.00102711 1e-05
-0.0117547 0.00102828 1e-05
-0.0115068 0.00102947 1e-05
-0.0112589 0.00103068 1e-05
-0.0110111 0.00103192 1e-05
-0.0107632 0.00103318 1e-05
-0.0105252 0.0010344 1e-05
-0.0102873 0.00103565 1e-05
-0.0100493 0.00103691 1e-05
-0.00981133 0.00103819 1e-05
-0.00957337 0.00103948 1e-05
-0.00934491 0.00104071 1e-05
-0.00911645 0.00104197 1e-05
-0.00888799 0.00104324 1e-05
-0.00865954 0.00104451 1e-05
-0.00843108 0.00104579 1e-05
-0.00821175 0.00104701 1e-05
-0.00799242 0.00104825 1e-05
-0.00777309 0.00104949 1e-05
-0.00755376 0.00105073 1e-05
-0.00733443 0.00105198 1e-05
-0.00712387 0.00105316 1e-05
-0.0069133 0.00105436 1e-05
-0.00670273 0.00105555 1e-05
-0.00649217 0.00105675 1e-05
-0.0062816 0.00105795 1e-05
-0.00607944 0.00105908 1e-05
-0.00587729 0.00106022 1e-05
-0.00567514 0.00106136 1e-05
-0.00547298 0.0010625 1e-05
-0.00527083 0.00106363 1e-05
-0.00507675 0.0010647 1e-05
-0.00488267 0.00106578 1e-05
-0.0046886 0.00106686 1e-05
-0.00449452 0.00106793 1e-05
-0.00430044 0.001069 1e-05
-0.00411412 0.00107001 1e-05
-0.0039278 0.00107102 1e-05
-0.00374147 0.00107203 1e-05
-0.00355515 0.00107303 1e-05
-0.00336883 0.00107403 1e-05
-0.00318995 0.00107497 1e-05
-0.00301107 0.00107591 1e-05
-0.00283219 0.00107685 1e-05
-0.00265331 0.00107778 1e-05
-0.00247443 0.0010787 1e-05
-0.0023027 0.00107957 1e-05
-0.00213097 0.00108043 1e-05
-0.00195924 0.00108129 1e-05
-0.0017875 0.00108214 1e-05
-0.00161577 0.00108299 1e-05
-0.0014509 0.00108377 1e-05
-0.00128603 0.00108456 1e-05
-0.00112116 0.00108533 1e-05
-0.000956289 0.00108608 1e-05
-0.000791418 0.00108683 1e-05
-0.000633135 0.00108752 1e-05
-0.000474851 0.0010882 1e-05
-0.000316567 0.00108886 1e-05
-0.000158283 0.00108949 1e-05
0 0.00109011 1e-05
0.000105677 0.0010905 1e-05
0.000211355 0.00109089 1e-05
0.000317032 0.00109126 1e-05
0.00042271 0.00109163 1e-05
0.000528387 0.00109198 1e-05
0.000634886 0.00109231 1e-05
0.000741385 0.00109264 1e-05
0.000847885 0.00109297 1e-05
0.000954384 0.00109328 1e-05
0.00106088 0.00109358 1e-05
0.00116821 0.00109387 1e-05
0.00127554 0.00109416 1e-05
0.00138286 0.00109444 1e-05
0.00149019 0.00109471 1e-05
0.00159752 0.00109497 1e-05
0.00170568 0.00109522 1e-05
0.00181384 0.00109547 1e-05
0.001922 0.00109571 1e-05
0.00203016 0.00109593 1e-05
0.00213833 0.00109615 1e-05
0.00224733 0.00109635 1e-05
0.00235633 0.00109656 1e-05
0.00246533 0.00109676 1e-05
0.00257434 0.00109695 1e-05
0.00268334 0.00109713 1e-05
0.00279319 0.0010973 1e-05
0.00290304 0.00109747 1e-05
0.00301289 0.00109764 1e-05
0.00312274 0.0010978 1e-05
0.00323259 0.00109796 1e-05
0.00334329 0.0010981 1e-05
0.003454 0.00109824 1e-05
0.0035647 0.00109839 1e-05
0.0036754 0.00109853 1e-05
0.00378611 0.00109866 1e-05
0.00389767 0.00109878 1e-05
0.00400924 0.0010989 1e-05
0.0041208 0.00109903 1e-05
0.00423237 0.00109914 1e-05
0.00434393 0.00109925 1e-05
0.00445636 0.00109936 1e-05
0.00456879 0.00109946 1e-05
0.00468123 0.00109956 1e-05
0.00479366 0.00109966 1e-05
0.00490609 0.00109975 1e-05
0.0050194 0.00109983 1e-05
0.0051327 0.00109991 1e-05
0.00524601 0.00109999 1e-05
0.00535932 0.00110007 1e-05
0.00547262 0.00110014 1e-05
0.00558681 0.0011002 1e-05
0.005701 0.00110027 1e-05
0.00581518 0.00110033 1e-05
0.00592937 0.00110038 1e-05
0.00604356 0.00110043 1e-05
0.00612289 0.00110047 1e-05
0.00620223 0.0011005 1e-05
0.00628156 0.00110052 1e-05
0.0063609 0.00110055 1e-05
0.00643869 0.00110058 1e-05
0.00647474 0.00110059 1e-05
0.00651078 0.0011006 1e-05
0.00654683 0.00110061 1e-05
0.00658288 0.00110062 1e-05
0.00661893 0.00110062 1e-05
0.0067349 0.00110065 1e-05
0.00685087 0.00110067 1e-05
0.00696684 0.00110069 1e-05
0.00708281 0.00110071 1e-05
0.00719878 0.00110072 1e-05
0.00731565 0.00110072 1e-05
0.00743252 0.00110072 1e-05
0.00754939 0.00110071 1e-05
0.00766626 0.00110071 1e-05
0.00778313 0.00110069 1e-05
0.00790091 0.00110067 1e-05
0.00801869 0.00110065 1e-05
0.00813647 0.00110062 1e-05
0.00825425 0.00110059 1e-05
0.00837203 0.00110055 1e-05
0.00849073 0.0011005 1e-05
0.00860942 0.00110045 1e-05
0.00872812 0.0011004 1e-05
0.00884682 0.00110034 1e-05
0.00896551 0.00110028 1e-05
0.00908513 0.0011002 1e-05
0.00920475 0.00110012 1e-05
0.00932437 0.00110004 1e-05
0.00944398 0.00109996 1e-05
0.0095636 0.00109987 1e-05
0.00968415 0.00109975 1e-05
0.0098047 0.00109965 1e-05
0.00992525 0.00109955 1e-05
0.0100458 0.00109943 1e-05
0.0101663 0.00109932 1e-05
0.0102878 0.00109917 1e-05
0.0104093 0.00109904 1e-05
0.0105308 0.0010989 1e-05
0.0106523 0.00109876 1e-05
0.0107738 0.00109861 1e-05
0.0108962 0.00109842 1e-05
0.0110186 0.00109826 1e-05
0.0111411 0.00109809 1e-05
0.0112635 0.00109791 1e-05
0.0113859 0.00109773 1e-05
0.0115093 0.00109751 1e-05
0.0116327 0.00109731 1e-05
0.0117561 0.00109711 1e-05
0.0118795 0.0010969 1e-05
0.0120028 0.00109669 1e-05
0.0121272 0.00109642 1e-05
0.0122515 0.00109619 1e-05
0.0123759 0.00109595 1e-05
0.0125002 0.00109571 1e-05
0.0126245 0.00109545 1e-05
0.0127498 0.00109515 1e-05
0.0128752 0.00109488 1e-05
0.0130005 0.0010946 1e-05
0.0131258 0.00109432 1e-05
0.0132511 0.00109403 1e-05
0.0133774 0.00109369 1e-05
0.0135036 0.00109338 1e-05
0.0136299 0.00109306 1e-05
0.0137562 0.00109273 1e-05
0.0138825 0.0010924 1e-05
0.0140098 0.00109202 1e-05
0.014137 0.00109166 1e-05
0.0142643 0.0010913 1e-05
0.0143915 0.00109093 1e-05
0.0145188 0.00109055 1e-05
0.0146471 0.00109012 1e-05
0.0147753 0.00108972 1e-05
0.0149036 0.00108932 1e-05
0.0150318 0.0010889 1e-05
0.0151601 0.00108848 1e-05
0.0152893 0.00108801 1e-05
0.0154186 0.00108756 1e-05
0.0155478 0.00108711 1e-05
0.0156771 0.00108665 1e-05
0.0158063 0.00108617 1e-05
0.0159366 0.00108566 1e-05
0.0160668 0.00108516 1e-05
0.0161971 0.00108466 1e-05
0.0163274 0.00108415 1e-05
0.0164576 0.00108363 1e-05
0.0165889 0.00108307 1e-05
0.0167201 0.00108252 1e-05
0.0168514 0.00108197 1e-05
0.0169827 0.00108141 1e-05
0.0171139 0.00108083 1e-05
0.0172462 0.00108023 1e-05
0.0173785 0.00107963 1e-05
0.0175108 0.00107903 1e-05
0.0176431 0.00107842 1e-05
0.0177754 0.00107779 1e-05
0.0179087 0.00107713 1e-05
0.018042 0.00107648 1e-05
0.0181753 0.00107583 1e-05
0.0183087 0.00107517 1e-05
0.018442 0.00107449 1e-05
0.0185763 0.00107378 1e-05
0.0187107 0.00107308 1e-05
0.018845 0.00107237 1e-05
0.0189794 0.00107165 1e-05
0.0191137 0.00107092 1e-05
0.0192491 0.00107016 1e-05
0.0193845 0.0010694 1e-05
0.0195199 0.00106864 1e-05
0.0196553 0.00106786 1e-05
0.0197907 0.00106707 1e-05
0.0199272 0.00106627 1e-05
0.0200636 0.00106545 1e-05
0.0202001 0.00106463 1e-05
0.0203365 0.0010638 1e-05
0.020473 0.00106295 1e-05
0.0206105 0.00106209 1e-05
0.020748 0.00106122 1e-05
0.0208855 0.00106034 1e-05
0.021023 0.00105945 1e-05
0.0211606 0.00105855 1e-05
0.0212991 0.00105764 1e-05
0.0214377 0.00105671 1e-05
0.0215763 0.00105577 1e-05
0.0217149 0.00105481 1e-05
0.0218535 0.00105386 1e-05
0.0219931 0.00105289 1e-05
0.0221328 0.00105191 1e-05
0.0222724 0.00105091 1e-05
0.0224121 0.00104989 1e-05
0.0225517 0.00104888 1e-05
0.0226925 0.00104786 1e-05
0.0228332 0.00104682 1e-05
0.022974 0.00104575 1e-05
0.0231147 0.00104468 1e-05
0.0232555 0.00104361 1e-05
0.0233973 0.00104254 1e-05
0.0235391 0.00104143 1e-05
0.023681 0.00104031 1e-05
0.0238228 0.00103918 1e-05
0.0239647 0.00103805 1e-05
0.0241076 0.00103691 1e-05
0.0242505 0.00103575 1e-05
0.0243935 0.00103457 1e-05
0.0245364 0.00103337 1e-05
0.0246794 0.00103219 1e-05
0.0248234 0.001031 1e-05
0.0249675 0.00102978 1e-05
0.0251115 0.00102853 1e-05
0.0252556 0.00102728 1e-05
0.0253996 0.00102603 1e-05
0.0255448 0.00102478 1e-05
0.02569 0.0010235 1e-05
0.0258351 0.00102219 1e-05
0.0259803 0.00102088 1e-05
0.0261255 0.00101957 1e-05
0.0262718 0.00101827 1e-05
0.0264181 0.00101692 1e-05
0.0265644 0.00101556 1e-05
0.0267107 0.00101419 1e-05
0.026857 0.00101282 1e-05
0.0270044 0.00101145 1e-05
0.0271519 0.00101005 1e-05
0.0272993 0.00100862 1e-05
0.0274468 0.00100719 1e-05
0.0275942 0.00100576 1e-05
0.0277428 0.00100433 1e-05
0.0278914 0.00100286 1e-05
0.0280399 0.00100138 1e-05
0.0281885 0.000999889 1e-05
0.0283371 0.000998394 1e-05
0.0284869 0.0009969 1e-05
0.0286366 0.000995371 1e-05
0.0287863 0.000993827 1e-05
0.0289361 0.000992274 1e-05
0.0290858 0.000990716 1e-05
0.0292367 0.000989158 1e-05
0.0293876 0.000987563 1e-05
0.0295385 0.000985958 1e-05
0.0296894 0.000984343 1e-05
0.0298403 0.000982719 1e-05
0.0299924 0.000981095 1e-05
0.0301445 0.000979436 1e-05
0.0302966 0.000977767 1e-05
0.0304486 0.000976089 1e-05
0.0306007 0.000974402 1e-05
0.030754 0.00097271 1e-05
0.0309072 0.000970987 1e-05
0.0310605 0.000969254 1e-05
0.0312138 0.000967511 1e-05
0.031367 0.000965759 1e-05
0.0315215 0.000963998 1e-05
0.0316759 0.000962209 1e-05
0.0318304 0.000960411 1e-05
0.0319848 0.000958602 1e-05
0.0321393 0.000956782 1e-05
0.0322949 0.00095495 1e-05
0.0324506 0.000953094 1e-05
0.0326062 0.000951228 1e-05
0.0327619 0.000949351 1e-05
0.0329175 0.000947463 1e-05
0.0330744 0.000945557 1e-05
0.0332313 0.000943631 1e-05
0.0333881 0.000941694 1e-05
0.033545 0.000939746 1e-05
[...]
POINT_DATA 10920
 FIELD attributes 1
U 3 10920 float
10.0004 	0.00757602 	0 10.0023 	0.0151317 	0 10.0042 	0.0217945 	0 10.0061 	0.0284121 	0 10.008 	0.0349849 	0 10.0143 	0.0464401 	0 10.016 	0.0368173 	0 10.0207 	0.0356216 	0 10.0255 	0.0344288 	0 10.0302 	0.0332391 	0 10.0386 	0.0396394 	0 10.0406 	0.0278995 	0 10.0458 	0.0269444 	0 10.051 	0.0259865 	0 10.0562 	0.0250258 	0 10.0638 	0.0310631 	0 10.0662 	0.0246533 	0 10.0707 	0.0260059 	0 10.0752 	0.0273643 	0 10.0797 	0.0287286 	0 10.0854 	0.0345998 	0 10.0883 	0.0320801 	0 10.0922 	0.034023 	0 10.0961 	0.0359738 	0 10.1 	0.0379325 	0 10.1041 	0.0417984 	0 10.1072 	0.0414765 	0 10.1105 	0.0429576 	0 10.1137 	0.0444437 	0 10.1169 	0.0459348 	0 10.1196 	0.047187 	0 10.1198 	0.0472618 	0 10.1199 	0.0473366 	0 10.1201 	0.0474114 	0 10.1203 	0.0474862 	0 10.1204 	0.0475349 	0 10.123 	0.0485553 	0 10.1255 	0.049559 	0 10.128 	0.0505654 	0 10.1306 	0.0515744 	0 10.1333 	0.0520949 	0 10.1349 	0.0530914 	0 10.1367 	0.0537371 	0 10.1384 	0.0543842 	0 10.1402 	0.0550326 	0 10.1424 	0.0548619 	0 10.1433 	0.0558266 	0 10.1445 	0.0562077 	0 10.1456 	0.0565895 	0 10.1468 	0.0569718 	0 10.1486 	0.056341 	0 10.149 	0.0572422 	0 10.1497 	0.0574189 	0 10.1504 	0.0575957 	0 10.1511 	0.0577727 	0 10.1524 	0.0568518 	0 10.1527 	0.0576672 	0 10.153 	0.0576893 	0 10.1533 	0.0577113 	0 10.1536 	0.0577334 	0 10.1543 	0.0566494 	0 10.1548 	0.0573679 	0 10.1548 	0.0572727 	0 10.1548 	0.0571775 	0 10.1548 	0.0570822 	0 10.1548 	0.0559168 	0 10.1557 	0.0565298 	0 10.1555 	0.0563398 	0 10.1552 	0.0561497 	0 10.155 	0.0559595 	0 10.1541 	0.0547584 	0 10.1558 	0.0552571 	0 10.1553 	0.0549761 	0 10.1549 	0.0546951 	0 10.1545 	0.0544139 	0 10.1527 	0.0531841 	0 10.1552 	0.053549 	0 10.1547 	0.0531674 	0 10.1541 	0.0527856 	0 10.1536 	0.0524037 	0 10.1507 	0.0511354 	0 10.1544 	0.0513368 	0 10.1538 	0.0508107 	0 10.1532 	0.0502845 	0 10.1526 	0.0497581 	0 10.1486 	0.0483844 	0 10.1535 	0.0483068 	0 10.1528 	0.0474765 	0 10.1521 	0.0466459 	0 10.1514 	0.0458152 	0 10.146 	0.0441673 	0 10.1521 	0.0435731 	1.63439e-21 10.1512 	0.0422395 	8.77756e-21 10.1504 	0.0409057 	1.59226e-20 10.1496 	0.0395717 	2.30696e-20 10.1426 	0.0377064 	2.03777e-20 10.1493 	0.0371832 	1.27586e-19 10.1482 	0.0359585 	1.17775e-19 10.147 	0.0347336 	1.07943e-19 10.1459 	0.0335085 	9.80904e-20 10.1382 	0.0318859 	-2.05058e-20 10.1445 	0.0316752 	-5.48105e-20 10.1432 	0.0307436 	-6.11529e-20 10.1418 	0.0298118 	-6.74884e-20 10.1405 	0.0288798 	-7.3817e-20 10.1327 	0.0274299 	-3.17142e-20 10.1387 	0.0274305 	-2.7468e-20 10.1373 	0.0264883 	-1.93046e-20 10.1358 	0.0255458 	-1.11423e-20 10.1344 	0.024603 	-2.98101e-21 10.1268 	0.0230047 	8.76582e-21 10.1325 	0.0232199 	-9.88469e-21 10.131 	0.022297 	-3.57097e-20 10.1296 	0.0213738 	-6.15379e-20 10.1281 	0.0204502 	-8.73692e-20 10.1207 	0.018689 	-1.2237e-19 10.126 	0.0191758 	-1.63371e-19 10.1243 	0.0184506 	-1.46142e-19 10.1227 	0.0177251 	-1.28904e-19 10.1211 	0.0169992 	-1.11657e-19 10.114 	0.0152774 	-4.28932e-20 10.1185 	0.0159316 	3.38522e-20 10.1168 	0.0154119 	5.22627e-20 10.115 	0.014892 	7.06642e-20 10.1132 	0.0143717 	8.90568e-20 10.1064 	0.0128258 	5.10461e-20 10.1103 	0.0134441 	-4.07067e-20 10.1083 	0.0130294 	-4.86745e-20 10.1064 	0.0126145 	-5.66309e-20 10.1045 	0.0121994 	-6.4576e-20 10.0982 	0.0108774 	-7.27324e-22 10.1011 	0.0113188 	5.73149e-20 10.099 	0.0109363 	4.4418e-20 10.0969 	0.0105535 	3.15105e-20 10.0948 	0.0101705 	1.85926e-20 10.089 	0.00908886 	-4.20796e-20 10.091 	0.00931654 	-1.01843e-19 10.0887 	0.00894913 	-1.31476e-19 10.0863 	0.00858155 	-1.61105e-19 10.084 	0.0082138 	-1.90731e-19 10.0788 	0.00737685 	-1.91632e-19 10.0796 	0.00740686 	-2.00354e-19 10.077 	0.00705203 	-1.83547e-19 10.0744 	0.00669705 	-1.66737e-19 10.0718 	0.00634193 	-1.49925e-19 10.0673 	0.00572604 	-1.18685e-19 10.0667 	0.00558267 	-9.72833e-20 10.0638 	0.00522905 	-7.2629e-20 10.0609 	0.0048753 	-4.79758e-20 10.058 	0.00452143 	-2.33239e-20 10.0543 	0.00407625 	7.25198e-22 10.0531 	0.00390139 	0 10.0509 	0.00365216 	0 10.0487 	0.00340287 	0 10.0465 	0.00315353 	0 10.0443 	0.00290901 	0 10.0433 	0.00279506 	0 10.0423 	0.00268111 	0 10.0413 	0.00256714 	0 10.0402 	0.00245316 	0 10.0365 	0.00226939 	-1.35337e-22 10.0356 	0.00196963 	-2.34548e-20 10.032 	0.00159446 	-4.75395e-20 10.0284 	0.00121918 	-7.16228e-20 10.0248 	0.000843772 	-9.57047e-20 10.0093 	0.000109466 	-1.19637e-19 10.0168 	8.99197e-05 	-1.2722e-19 10.0128 	-0.000298358 	-1.29822e-19 10.0089 	-0.000686752 	-1.32425e-19 10.0049 	-0.00107526 	-1.35029e-19 9.97925 	-0.00218055 	-1.31741e-19 9.99567 	-0.00187023 	-1.20517e-19 9.99129 	-0.00227057 	-8.25667e-20 9.98691 	-0.00267103 	-4.46237e-20 9.98253 	-0.00307161 	-6.68834e-21 9.94636 	-0.00457846 	5.97808e-20 9.97195 	-0.00392267 	6.06067e-20 9.96714 	-0.00433424 	6.22546e-20 9.96232 	-0.00474594 	6.39006e-20 9.95751 	-0.00515779 	6.55449e-20 9.91064 	-0.0070661 	7.21407e-20 9.94545 	-0.00607562 	5.62982e-20 9.94019 	-0.00649716 	4.04538e-20 9.93492 	-0.00691885 	2.46085e-20 9.92965 	-0.00734071 	8.76216e-21 9.87214 	-0.00962451 	-2.29467e-21 9.91602 	-0.00833028 	-8.07322e-21 9.9103 	-0.00876145 	-2.30865e-20 9.90457 	-0.00919281 	-3.80987e-20 9.89884 	-0.00962434 	-5.311e-20 9.83096 	-0.0122405 	-6.8151e-20 9.88356 	-0.0106871 	-6.39712e-20 9.87737 	-0.0111282 	-7.38873e-20 9.87117 	-0.0115694 	-8.38007e-20 9.86497 	-0.0120109 	-9.37113e-20 9.78724 	-0.0149049 	-1.23486e-19 9.84798 	-0.0131454 	-2.25151e-19 9.84132 	-0.0135959 	-2.12888e-19 9.83466 	-0.0140467 	-2.00637e-19 9.82799 	-0.0144978 	-1.88398e-19 9.74112 	-0.017606 	-5.63415e-20 9.80929 	-0.0156977 	-3.40579e-20 9.80216 	-0.0161578 	-2.33861e-20 9.79503 	-0.0166182 	-1.27136e-20 9.7879 	-0.0170789 	-2.04031e-21 9.6928 	-0.0203339 	0 9.76749 	-0.0183379 	0 9.75991 	-0.0188083 	0 9.75232 	-0.019279 	0 9.74473 	-0.01975 	0 9.64248 	-0.0230836 	0 9.72268 	-0.0210614 	6.20658e-22 9.71465 	-0.0215426 	1.0617e-20 9.70662 	-0.0220241 	2.06125e-20 9.69858 	-0.022506 	3.06072e-20 9.59036 	-0.0258476 	5.65658e-20 9.67149 	-0.0239541 	2.31772e-19 9.66651 	-0.0243534 	2.42112e-19 9.65805 	-0.0248455 	2.45818e-19 9.64031 	-0.0255853 	2.32093e-19 9.53662 	-0.0286164 	5.67766e-20 9.61248 	-0.0270225 	3.10541e-20 9.61563 	-0.0272283 	1.99824e-20 9.60676 	-0.027732 	1.13302e-20 9.58016 	-0.0286727 	8.02053e-21 9.48148 	-0.03139 	2.64454e-20 9.55181 	-0.0300923 	1.40807e-19 9.56222 	-0.0301602 	1.69919e-19 9.55296 	-0.0306767 	1.71071e-19 9.51854 	-0.0317591 	1.33687e-19 9.42517 	-0.034167 	6.03378e-21 9.48983 	-0.0331585 	-1.29879e-19 9.50656 	-0.0331424 	-1.87092e-19 9.49694 	-0.0336721 	-2.01072e-19 9.45578 	-0.0348355 	-1.73937e-19 9.36789 	-0.0369378 	-8.59181e-20 9.42684 	-0.0362172 	-2.39155e-19 9.4489 	-0.0361729 	-3.1164e-19 9.43893 	-0.0367159 	-3.14089e-19 9.39215 	-0.0378984 	-2.30649e-19 9.30983 	-0.0396986 	-6.43681e-20 9.36312 	-0.0392603 	-3.48899e-20 9.38951 	-0.039242 	-1.36953e-20 9.37923 	-0.0397972 	-3.79236e-21 9.32795 	-0.0409384 	0 9.25119 	-0.0424445 	0 9.29894 	-0.0422668 	0 9.32871 	-0.0423185 	0 9.31813 	-0.0428857 	0 9.26345 	-0.0439372 	3.22883e-21 9.19217 	-0.0451719 	7.66997e-21 9.23458 	-0.0452395 	3.42968e-21 9.26681 	-0.0454051 	0 9.25597 	-0.0459862 	0 9.1989 	-0.0469023 	3.73188e-21 9.13294 	-0.0478839 	8.17874e-21 9.17027 	-0.0481909 	3.93786e-21 9.20413 	-0.0485186 	6.43021e-22 9.19305 	-0.0491137 	9.64445e-21 9.13453 	-0.049843 	3.33813e-20 9.07368 	-0.05058 	5.78346e-20 9.10622 	-0.0511173 	2.2268e-19 9.13875 	-0.051655 	3.87527e-19 9.12654 	-0.0522513 	3.88198e-19 9.07055 	-0.0527531 	2.23328e-19 9.01452 	-0.0532558 	5.84591e-20 9.04261 	-0.0540106 	3.43233e-20 9.07068 	-0.0547661 	1.01881e-20 9.05859 	-0.0553444 	8.02575e-22 9.00711 	-0.055625 	5.05408e-21 8.95562 	-0.0559063 	9.30603e-21 8.9796 	-0.0568626 	5.26524e-21 9.00355 	-0.0578198 	1.22503e-21 8.99166 	-0.0583762 	7.8201e-22 8.94438 	-0.0584518 	-4.71418e-21 8.89709 	-0.0585278 	-1.02116e-20 8.91732 	-0.059668 	-6.68936e-20 8.93751 	-0.0608095 	-1.23579e-19 8.9259 	-0.0613412 	-1.25847e-19 8.88248 	-0.0612299 	-7.40211e-20 8.83907 	-0.0611187 	-2.21954e-20 8.85589 	-0.0624238 	1.08351e-19 8.87267 	-0.0637303 	2.38893e-19 8.8614 	-0.0642359 	2.50968e-19 8.82152 	-0.0639574 	1.4235e-19 8.78164 	-0.063679 	3.37313e-20 8.7954 	-0.0651297 	1.9018e-20 8.80911 	-0.0665821 	4.30084e-21 8.79824 	-0.0670607 	-1.407e-21 8.76158 	-0.0666351 	4.32339e-21 8.72491 	-0.0662094 	1.00544e-20 8.73593 	-0.0677857 	3.14491e-21 8.74689 	-0.0693637 	-3.77051e-21 8.73648 	-0.0698152 	-2.53375e-20 8.70272 	-0.0692636 	-9.05783e-20 8.66896 	-0.0687117 	-1.55821e-19 8.67754 	-0.0703948 	-3.27558e-19 8.68605 	-0.0720797 	-4.99289e-19 8.67615 	-0.0725043 	-4.77605e-19 8.64499 	-0.0718465 	-2.80507e-19 8.61385 	-0.0711883 	-8.34101e-20 8.62027 	-0.0729586 	7.81781e-20 8.62526 	-0.0746158 	2.26149e-19 8.61508 	-0.0749973 	2.22891e-19 8.58845 	-0.0743861 	1.18456e-19 8.55965 	-0.0736424 	5.80557e-22 8.56416 	-0.0754836 	-1.16337e-19 8.56546 	-0.0770065 	-2.10319e-19 8.55547 	-0.0773882 	-2.22465e-19 8.53312 	-0.0768891 	-1.50836e-19 8.50641 	-0.076078 	-4.95706e-20 8.50925 	-0.0779722 	-3.46784e-20 8.50755 	-0.0793277 	-2.00261e-20 8.49773 	-0.079711 	-5.80039e-21 8.47901 	-0.079359 	1.57066e-20 8.45417 	-0.0785002 	4.22293e-20 8.45554 	-0.0804351 	1.41298e-20 8.45142 	-0.0816005 	-3.77872e-21 8.44178 	-0.0819872 	-1.13785e-20 8.42613 	-0.0818071 	-7.14034e-21 8.40296 	-0.0809153 	1.19579e-20 8.40305 	-0.0828754 	-9.22836e-21 8.39702 	-0.0838322 	-2.22865e-20 8.38754 	-0.0842226 	-3.07568e-20 8.37448 	-0.0842335 	-4.49697e-20 8.35279 	-0.0833244 	-7.30836e-20 8.35176 	-0.0852963 	6.78539e-20 8.34424 	-0.0860341 	1.00836e-19 8.33492 	-0.0864304 	1.03927e-19 8.32405 	-0.0866458 	8.98215e-20 8.30369 	-0.0857363 	-3.09197e-20 8.30169 	-0.0877184 	8.79679e-20 8.29303 	-0.0882348 	1.00419e-19 8.28385 	-0.0886395 	1.0473e-19 8.27465 	-0.0890445 	1.09028e-19 8.25565 	-0.0881626 	1.17736e-20 8.25234 	-0.09003 	-1.2222e-21 8.24331 	-0.0904434 	-8.37249e-22 8.23427 	-0.090857 	-4.52341e-22 8.22521 	-0.0912711 	-6.74722e-23 8.20869 	-0.0906063 	2.11017e-20 8.20393 	-0.0922371 	0 8.19504 	-0.0926598 	0 8.18612 	-0.0930829 	0 8.17719 	-0.0935064 	0 8.16278 	-0.0930692 	1.71292e-20 8.15689 	-0.0944567 	0 8.14812 	-0.0948916 	0 8.13932 	-0.0953268 	0 8.13051 	-0.0957623 	0 8.11793 	-0.0955623 	0 8.11114 	-0.096713 	0 8.10249 	-0.0971634 	0 8.09381 	-0.0976142 	0 8.08511 	-0.0980653 	0 8.0741 	-0.0981019 	-8.38917e-21 8.06663 	-0.0990253 	0 8.05808 	-0.0994936 	0 8.04951 	-0.0999622 	0 8.04092 	-0.100431 	0 8.03125 	-0.100699 	-8.38697e-21 8.02334 	-0.101404 	0 8.01496 	-0.101888 	0 8.00655 	-0.102373 	0 7.99813 	-0.102858 	0 7.99002 	-0.103323 	0 7.98988 	-0.103331 	0 7.98975 	-0.103339 	0 7.98961 	-0.103346 	0 7.98947 	-0.103354 	0 7.98935 	-0.103359 	0 7.98078 	-0.103874 	-1.23937e-20 7.97219 	-0.104386 	-2.48208e-20 7.96358 	-0.104898 	-3.72462e-20 7.95494 	-0.105411 	-4.96699e-20 7.94736 	-0.105724 	-6.21017e-20 7.93845 	-0.10644 	-5.90029e-20 7.92995 	-0.106975 	-5.818e-20 7.92142 	-0.107511 	-5.73535e-20 7.91287 	-0.108047 	-5.65235e-20 7.90641 	-0.108193 	-6.02714e-20 7.89715 	-0.109105 	-4.68525e-20 7.88872 	-0.109665 	-3.34112e-20 7.88027 	-0.110225 	-1.99681e-20 7.87179 	-0.110786 	-6.52302e-21 7.86641 	-0.110776 	0 7.85681 	-0.111877 	-2.75745e-21 7.84845 	-0.112463 	-8.90822e-21 7.84006 	-0.113049 	-1.5058e-20 7.83165 	-0.113636 	-2.12068e-20 7.8273 	-0.113479 	-2.72955e-20 7.81736 	-0.114765 	-6.67641e-20 7.80906 	-0.115378 	-9.20203e-20 7.80073 	-0.115992 	-1.17279e-19 7.79237 	-0.116606 	-1.42539e-19 7.78903 	-0.11631 	-1.27607e-19 7.77875 	-0.117776 	-9.66998e-20 7.7705 	-0.118418 	-8.24671e-20 7.76222 	-0.119061 	-6.8226e-20 7.75418 	-0.119655 	-5.61406e-20 7.75152 	-0.119276 	-8.72065e-20 7.74119 	-0.120808 	-1.05136e-19 7.7327 	-0.121591 	-8.68929e-20 7.72446 	-0.122263 	-6.33352e-20 7.71747 	-0.122707 	-3.54151e-20 7.71473 	-0.122385 	7.09149e-21 7.70449 	-0.123925 	1.26941e-20 7.69562 	-0.124903 	1.01969e-20 7.68741 	-0.125607 	3.76035e-21 7.68143 	-0.125908 	0 7.6786 	-0.125644 	0 7.66844 	-0.127194 	0 7.65919 	-0.128362 	0 7.651 	-0.129099 	0 7.64598 	-0.129265 	0 7.64306 	-0.129058 	0 7.63297 	-0.130621 	0 7.62335 	-0.131975 	-5.9134e-21 7.61517 	-0.132745 	-2.83751e-20 7.61108 	-0.132784 	-5.09159e-20 7.60805 	-0.132635 	-7.34784e-20 7.59803 	-0.134212 	-4.91125e-20 7.58804 	-0.135748 	-2.4461e-20 7.57987 	-0.136554 	5.21313e-21 7.57666 	-0.136472 	1.06478e-20 7.57351 	-0.136381 	1.58312e-20 7.56354 	-0.137973 	5.70807e-20 7.55351 	-0.139567 	9.83279e-20 7.54594 	-0.140367 	1.17353e-19 7.54267 	-0.140334 	9.84626e-20 7.53939 	-0.140301 	7.95714e-20 7.52947 	-0.141912 	4.91231e-20 7.51948 	-0.143524 	1.8663e-20 7.51245 	-0.144352 	4.6036e-21 7.50904 	-0.144378 	1.64432e-20 7.50563 	-0.144404 	2.82834e-20 7.49574 	-0.146036 	1.08434e-19 7.48579 	-0.147668 	1.88589e-19 7.47926 	-0.148527 	1.89437e-19 7.47571 	-0.14861 	1.10093e-19 7.47216 	-0.148694 	3.07464e-20 7.46229 	-0.150348 	1.99241e-20 7.45237 	-0.152003 	9.1067e-21 7.44633 	-0.152893 	9.24791e-21 7.44263 	-0.153035 	2.07775e-20 7.43893 	-0.153177 	3.23081e-20 7.42907 	-0.154855 	1.1045e-19 7.41924 	-0.156519 	1.87105e-19 7.41371 	-0.157409 	1.84328e-19 7.40974 	-0.157659 	1.12187e-19 7.40588 	-0.157861 	3.48848e-20 7.39602 	-0.159564 	2.44036e-20 7.38713 	-0.161086 	1.38931e-20 7.38151 	-0.16202 	3.27667e-21 7.37699 	-0.16249 	0 7.37295 	-0.162752 	0 7.36309 	-0.164482 	0 7.35511 	-0.165867 	0 7.34937 	-0.166846 	0 7.34431 	-0.167532 	0 7.34011 	-0.167856 	0 7.33022 	-0.169613 	0 7.32311 	-0.170866 	0 7.31725 	-0.17189 	0 7.31166 	-0.17279 	3.88212e-21 7.30728 	-0.173176 	2.39191e-20 7.29735 	-0.174962 	1.79398e-21 7.29108 	-0.17609 	9.95886e-21 7.28509 	-0.17716 	2.07991e-20 7.27907 	-0.17823 	3.16423e-20 7.27441 	-0.178719 	4.74805e-20 7.26505 	-0.180426 	1.40039e-19 7.25897 	-0.181543 	1.45704e-19 7.25285 	-0.182661 	1.51342e-19 7.24669 	-0.183778 	1.56951e-19 7.24146 	-0.184491 	7.01631e-20 7.23296 	-0.186067 	1.46064e-19 7.22674 	-0.187232 	1.31041e-19 7.22047 	-0.188398 	1.1599e-19 7.21416 	-0.189564 	1.0091e-19 7.20837 	-0.190496 	4.92697e-20 7.2007 	-0.191947 	4.45392e-20 7.19432 	-0.193162 	4.51532e-20 7.1879 	-0.194376 	4.57739e-20 7.18144 	-0.195591 	4.64012e-20 7.17508 	-0.19674 	5.24443e-20 7.17215 	-0.197304 	5.42599e-20 7.16958 	-0.197802 	5.29856e-20 7.16701 	-0.1983 	5.17081e-20 7.16443 	-0.198798 	5.04275e-20 7.16191 	-0.199283 	4.91774e-20 7.15779 	-0.20005 	4.84964e-20 7.15364 	-0.200818 	4.78127e-20 7.14949 	-0.201585 	4.71264e-20 7.14531 	-0.202353 	4.64375e-20 7.14195 	-0.20303 	4.91266e-20 7.13461 	-0.204431 	4.5793e-20 7.1277 	-0.205743 	3.75278e-20 7.12074 	-0.207054 	2.92734e-20 7.11373 	-0.208366 	2.10299e-20 7.10889 	-0.209442 	1.78719e-21 7.10056 	-0.211038 	-3.27922e-22 7.09346 	-0.2124 	-2.28057e-22 7.08631 	-0.213762 	-1.28156e-22 7.07911 	-0.215125 	-2.82179e-23 7.07547 	-0.216107 	0 7.06613 	-0.217897 	-3.32409e-21 7.05884 	-0.21931 	-2.0612e-20 7.05149 	-0.220723 	-3.78922e-20 7.04411 	-0.222133 	-5.51434e-20 7.04165 	-0.223028 	-6.76778e-20 7.03162 	-0.224948 	-5.24238e-20 7.02377 	-0.226474 	-3.37621e-20 7.01621 	-0.227938 	-1.45607e-20 7.01008 	-0.22925 	1.65671e-21 7.00737 	-0.230205 	1.08316e-20 6.99715 	-0.232167 	2.85304e-21 6.98821 	-0.233894 	8.29752e-21 6.98043 	-0.235408 	2.57991e-20 6.97554 	-0.236624 	4.87025e-20 6.97257 	-0.23764 	7.52334e-20 6.96214 	-0.239644 	4.75606e-20 6.95209 	-0.24157 	2.13682e-20 6.94408 	-0.243136 	2.06799e-21 6.94043 	-0.244257 	-3.5447e-21 6.9372 	-0.245332 	-7.74247e-21 6.92655 	-0.247379 	-7.25916e-20 6.91583 	-0.249425 	-1.37443e-19 6.90817 	-0.251014 	-1.40882e-19 6.90471 	-0.252147 	-8.98988e-20 6.9012 	-0.253281 	-3.89155e-20 6.89032 	-0.25537 	-9.08032e-20 6.87936 	-0.257459 	-1.42701e-19 6.87207 	-0.259103 	-1.41558e-19 6.86831 	-0.260294 	-8.72023e-20 6.86451 	-0.261485 	-3.28453e-20 6.85339 	-0.263616 	-8.75458e-20 6.84219 	-0.265748 	-1.42254e-19 6.83523 	-0.267447 	-1.35566e-19 6.83118 	-0.268694 	-7.38442e-20 6.82707 	-0.269941 	-1.21163e-20 6.8157 	-0.272115 	-8.62667e-21 6.80529 	-0.274188 	-5.07191e-21 6.79847 	-0.275905 	-1.27926e-21 6.79326 	-0.277347 	0 6.78884 	-0.278649 	0 6.7772 	-0.280864 	0 6.76815 	-0.282822 	0 6.76104 	-0.284586 	0 6.75449 	-0.286248 	0 6.74974 	-0.287603 	0 6.73782 	-0.289859 	0 6.73014 	-0.291701 	-3.73398e-21 6.72273 	-0.293511 	-7.74759e-21 6.71524 	-0.295321 	-1.17633e-20 6.70972 	-0.296799 	-3.86675e-21 6.69889 	-0.298963 	-5.43053e-20 6.69122 	-0.300818 	-5.00984e-20 6.68348 	-0.302673 	-4.58604e-20 6.67568 	-0.304528 	-4.15912e-20 6.66874 	-0.306231 	-1.18418e-20 6.66054 	-0.307979 	-1.04683e-20 6.65377 	-0.309587 	-1.02554e-21 6.64696 	-0.311195 	8.41858e-21 6.64009 	-0.312802 	1.78641e-20 6.63362 	-0.314307 	2.67082e-20 6.63219 	-0.314617 	2.84394e-20 6.63075 	-0.314927 	3.01705e-20 6.62932 	-0.315237 	3.19016e-20 6.62788 	-0.315547 	3.36326e-20 6.62664 	-0.315832 	3.50705e-20 6.61773 	-0.317793 	3.61986e-20 6.60885 	-0.319727 	3.80849e-20 6.5999 	-0.32166 	3.99591e-20 6.59087 	-0.323593 	4.18211e-20 6.58325 	-0.325352 	5.12977e-20 6.57331 	-0.327519 	5.59516e-20 6.56404 	-0.329491 	5.31846e-20 6.55469 	-0.331463 	5.0425e-20 6.54527 	-0.333434 	4.76727e-20 6.53858 	-0.335082 	2.12806e-20 6.52771 	-0.337415 	4.63123e-20 6.51788 	-0.339464 	4.26192e-20 6.50813 	-0.341471 	3.48947e-20 6.49943 	-0.343349 	1.63061e-20 6.49256 	-0.34501 	-2.06452e-20 6.48128 	-0.347373 	-1.14597e-20 6.47032 	-0.349632 	-6.00471e-21 6.46014 	-0.351672 	-8.42989e-21 6.45242 	-0.353427 	-8.18689e-21 6.44514 	-0.355124 	-7.39469e-21 6.43343 	-0.357513 	-5.55343e-21 6.42163 	-0.359902 	-3.70056e-21 6.41161 	-0.361951 	2.05763e-21 6.40396 	-0.363681 	8.8642e-21 6.39625 	-0.365411 	1.56763e-20 6.3841 	-0.367823 	1.01997e-20 6.37185 	-0.370236 	4.72899e-21 6.36208 	-0.372339 	0 6.35399 	-0.374098 	0 6.34583 	-0.375857 	0 6.33323 	-0.378291 	0 6.3214 	-0.380628 	0 6.31164 	-0.382727 	0 6.30246 	-0.384666 	0 6.29383 	-0.386449 	0 6.28075 	-0.3889 	0 6.27001 	-0.391085 	4.8285e-21 6.25979 	-0.393203 	1.08482e-20 6.24948 	-0.39532 	1.68723e-20 6.24018 	-0.397169 	2.29176e-20 6.22762 	-0.399525 	2.01254e-20 6.217 	-0.401657 	2.12816e-20 6.2063 	-0.403789 	2.24472e-20 6.1955 	-0.40592 	2.36222e-20 6.18483 	-0.407998 	2.51958e-20 6.18185 	-0.408544 	2.13519e-20 6.17926 	-0.409047 	1.95365e-20 6.17666 	-0.409549 	1.77223e-20 6.17406 	-0.410052 	1.59092e-20 6.1715 	-0.410546 	1.41294e-20 6.16333 	-0.412189 	8.01682e-21 6.15511 	-0.413832 	1.91498e-21 6.14684 	-0.415474 	-4.1761e-21 6.13851 	-0.417116 	-1.02564e-20 6.13033 	-0.41862 	-2.24253e-20 6.11963 	-0.420939 	-4.14616e-20 6.10849 	-0.423087 	-4.08487e-20 6.09725 	-0.425235 	-4.02674e-20 6.08593 	-0.427381 	-3.97177e-20 6.07495 	-0.429207 	-1.10545e-20 6.06407 	-0.431675 	3.64797e-20 6.05258 	-0.433898 	4.89332e-20 6.04084 	-0.436043 	5.03697e-20 6.02923 	-0.438011 	2.26017e-20 6.01774 	-0.439822 	-3.14326e-20 6.00636 	-0.442281 	-9.31271e-20 5.99486 	-0.444735 	-1.54214e-19 5.98263 	-0.446836 	-1.57903e-19 5.97069 	-0.448638 	-8.12168e-20 5.95866 	-0.450441 	-4.48818e-21 5.94675 	-0.452884 	-1.06176e-21 5.93474 	-0.455326 	2.38358e-21 5.92274 	-0.45746 	1.04127e-20 5.91025 	-0.459249 	2.51411e-20 5.89766 	-0.461037 	3.98868e-20 5.88522 	-0.463458 	6.33358e-20 5.87279 	-0.465774 	7.88122e-20 5.86052 	-0.467861 	7.67897e-20 5.84787 	-0.469814 	6.70427e-20 5.83472 	-0.47158 	4.65145e-20 5.82172 	-0.473973 	3.62682e-20 5.80896 	-0.476052 	4.30971e-20 5.79614 	-0.47811 	5.10321e-20 5.78321 	-0.480166 	5.89958e-20 5.76979 	-0.482043 	7.67623e-20 5.76117 	-0.483481 	9.16911e-20 5.75266 	-0.484778 	8.5724e-20 5.74411 	-0.486076 	7.97418e-20 5.73552 	-0.487372 	7.37446e-20 5.72727 	-0.48861 	6.80029e-20 5.72254 	-0.489352 	6.50612e-20 5.71778 	-0.490093 	6.21159e-20 5.71302 	-0.490834 	5.91669e-20 5.70824 	-0.491575 	5.62142e-20 5.7036 	-0.492239 	5.14557e-20 5.69048 	-0.494337 	1.74123e-20 5.67712 	-0.496332 	-7.82459e-21 5.66366 	-0.498326 