/*--------------------------------*- C++ -*----------------------------------*\
| =========                 |                                                 |
| \\      /  F ield         | OpenFOAM: The Open Source CFD Toolbox           |
|  \\    /   O peration     | Version:  v1712                                 |
|   \\  /    A nd           | Web:      www.OpenFOAM.com                      |
|    \\/     M anipulation  |                                                 |
\*---------------------------------------------------------------------------*/
FoamFile
{
    version     2.0;
    format      ascii;
    class       volScalarField;
    location    "200";
    object      epsilon;
}
// * * * * * * * * * * * * * * * * * * * * * * * * * * * * * * * * * * * * * //

dimensions      [0 2 -3 0 0 0 0];


internalField   nonuniform List<scalar> 
12225
(
1085.71
2467.78
3645.44
4414.75
4812.15
4980.51
4975.34
4926.51
4840.74
4729.17
4620.75
4517.27
4425.59
4339.63
4269.13
4198.64
4151.01
4085.84
81.2301
262.52
438.553
584.501
691.162
762.815
805.019
829.626
846.92
856.81
866.665
873.626
883.032
890.875
900.521
910.311
917.417
934.271
20.5775
51.1735
83.474
112.529
136.934
156.181
170.172
179.874
186.391
190.772
193.498
195.605
196.87
198.354
199.397
200.69
202.75
205.985
14.7579
21.8683
30.0215
38.4984
46.2196
53.0343
58.6258
63.2595
66.7577
69.6436
71.6134
73.3302
74.3187
75.3359
75.7352
76.4085
76.6251
77.3448
14.361
16.3337
18.457
21.4861
24.4397
27.2609
29.7371
31.9824
33.8191
35.4788
36.745
37.9267
38.7445
39.574
40.0548
40.6521
40.851
41.4568
14.6446
14.9541
15.4277
16.4559
17.6093
18.8286
19.9699
21.0767
22.0337
22.9481
23.6895
24.4155
24.9561
25.527
25.8916
26.3522
26.5471
27.0003
14.7184
14.6387
14.6738
14.8757
15.2176
15.6833
16.1628
16.6724
17.1383
17.6108
18.0103
18.4207
18.7384
19.0877
19.3212
19.6228
19.7665
20.0792
14.7545
14.5907
14.4691
14.4209
14.4418
14.5153
14.6476
14.8246
15.0023
15.2023
15.3792
15.576
15.7326
15.9148
16.0402
16.2072
16.292
16.4756
14.7641
14.5919
14.4345
14.3029
14.2031
14.1371
14.0973
14.0987
14.1107
14.1415
14.1783
14.2346
14.2793
14.3426
14.3853
14.4496
14.4818
14.5626
14.7656
14.5942
14.432
14.2828
14.1466
14.0296
13.9256
13.8437
13.7744
13.7224
13.6772
13.6482
13.6204
13.6063
13.5892
13.5837
13.5723
13.582
14.7657
14.5945
14.4323
14.2806
14.137
14.0051
13.8816
13.7705
13.6679
13.5777
13.4939
13.4219
13.3537
13.2972
13.2407
13.1973
13.1473
13.1179
14.7657
14.5944
14.4323
14.2801
14.1357
14.0007
13.8728
13.754
13.6417
13.5386
13.441
13.3523
13.2677
13.1922
13.1185
13.055
12.9896
12.9369
14.7657
14.5941
14.4321
14.2797
14.1353
13.9995
13.8707
13.7497
13.6347
13.5271
13.4248
13.3294
13.2384
13.1542
13.0732
12.9991
12.9267
12.8616
14.7657
14.594
14.4319
14.2792
14.1349
13.9987
13.8698
13.7481
13.6327
13.5237
13.4201
13.3224
13.2294
13.1418
13.0582
12.9796
12.9043
12.8337
14.7657
14.5938
14.4317
14.2789
14.1345
13.9981
13.8691
13.7471
13.6316
13.5222
13.4183
13.32
13.2265
13.1379
13.0536
12.9737
12.8975
12.8253
14.7657
14.5938
14.4316
14.2786
14.1341
13.9976
13.8685
13.7463
13.6307
13.5211
13.4171
13.3185
13.2249
13.1361
13.0516
12.9713
12.8949
12.8222
14.7657
14.5937
14.4315
14.2784
14.1338
13.9972
13.868
13.7457
13.6299
13.5202
13.4162
13.3175
13.2237
13.1347
13.0501
12.9697
12.8931
12.8203
14.7657
14.5937
14.4314
14.2783
14.1336
13.9969
13.8677
13.7453
13.6294
13.5196
13.4155
13.3167
13.2228
13.1337
13.049
12.9685
12.8919
12.819
14.7657
14.5937
14.4314
14.2782
14.1336
13.9969
13.8676
13.7452
13.6292
13.5194
13.4152
13.3163
13.2224
13.1333
13.0485
12.968
12.8913
12.8184
14.7657
14.5937
14.4315
14.2783
14.1337
13.997
13.8677
13.7453
13.6294
13.5196
13.4154
13.3166
13.2227
13.1336
13.0489
12.9683
12.8917
12.8188
14.7657
14.5937
14.4316
14.2785
14.1339
13.9973
13.8681
13.7457
13.63
13.5202
13.4163
13.3176
13.2241
13.1352
13.051
12.9708
12.8948
12.8224
14.7657
14.5938
14.4317
14.2786
14.1343
13.9978
13.869
13.7473
13.6325
13.524
13.4219
13.3252
13.2344
13.1483
13.0676
12.9907
12.9192
12.8504
14.7657
14.5937
14.4319
14.2789
14.1361
14.0021
13.8782
13.7629
13.6573
13.5595
13.4707
13.3883
13.3141
13.2446
13.1829
13.1237
13.0729
13.0213
14.7644
14.5922
14.4335
14.2871
14.1628
14.0551
13.9689
13.8978
13.8459
13.8048
13.7783
13.758
13.7483
13.7412
13.7425
13.7433
13.7529
13.7516
14.7478
14.5944
14.4764
14.4102
14.4234
14.4613
14.5554
14.6706
14.817
14.9613
15.1238
15.2712
15.432
15.5684
15.7197
15.8374
15.9783
16.0722
14.6504
14.7821
14.9369
15.3416
15.9227
16.5509
17.2339
17.8781
18.5378
19.1218
19.7129
20.2098
20.7203
21.1251
21.5592
21.8761
22.2458
22.4813
14.572
16.1273
17.9726
20.4197
22.9236
25.2655
27.5469
29.5528
31.4909
33.1029
34.686
35.9145
37.1765
38.0667
39.062
39.6739
40.4626
40.8542
16.5442
25.8795
36.721
46.5547
55.8661
64.2737
72.102
78.7419
84.803
89.5919
94.0148
97.177
100.316
102.193
104.455
105.419
107.138
107.495
45.7966
105.211
164.44
217.234
267.845
313.451
353.662
386.107
413.224
433.657
450.597
462.705
472.894
479.775
486.817
490.308
496.155
497.492
632.343
1081.16
1534.74
1880.99
2183.47
2431.76
2631.52
2773.01
2876.13
2932.17
2969.03
2970.11
2963.09
2946.15
2918.22
2884.95
2849.13
2811.79
0.439129
0.430989
0.721501
1.01119
1.26871
1.48486
1.67359
1.85261
2.0209
2.1857
2.35543
2.53939
2.75081
3.01282
3.33805
3.71628
4.13927
4.60757
5.12523
5.69906
6.33536
7.04149
7.82294
8.68642
9.63671
10.6812
11.8265
13.0695
14.4084
15.8458
17.3814
19.0186
20.7577
22.6024
24.5525
26.613
28.784
31.074
33.4914
36.0544
38.7836
41.7161
44.7839
48.0059
51.3754
54.9052
58.5942
62.4521
66.4795
70.6855
75.0707
79.6443
84.4067
89.3675
94.5265
99.8935
105.467
111.258
117.263
123.494
129.946
136.631
143.542
150.692
158.073
165.696
173.552
181.652
189.986
198.563
207.372
216.422
225.7
235.213
244.946
254.906
265.076
275.461
286.044
296.827
307.792
318.939
330.248
341.718
353.324
365.064
376.913
388.865
400.891
412.979
425.101
437.228
449.331
461.378
473.334
485.171
496.872
508.462
520.039
531.429
542.676
553.734
564.594
575.224
585.603
595.704
605.503
614.974
624.092
632.832
641.169
649.08
656.54
663.528
670.022
676.002
681.452
686.352
690.689
694.449
697.624
700.21
702.206
703.61
704.426
704.623
704.064
702.929
701.396
699.258
696.479
693.169
689.321
684.964
680.122
674.822
669.092
662.967
656.482
649.676
642.61
635.319
627.845
620.223
612.497
604.704
596.885
589.075
581.316
573.641
566.088
558.685
551.468
544.463
537.7
531.201
524.99
519.083
513.5
508.247
503.342
498.785
494.579
490.722
487.208
484.006
481.12
478.793
479.44
481.359
483.578
486.068
488.786
491.616
494.44
496.889
498.975
500.044
498.648
476.762
1.7178
0.95365
0.84658
0.879205
0.963422
1.07584
1.2096
1.36282
1.53273
1.71937
1.92443
2.15096
2.40284
2.68449
2.99828
3.34423
3.72206
4.13283
4.57801
5.05973
5.57956
6.13928
6.7398
7.38239
8.06745
8.796
9.56785
10.3826
11.2403
12.1434
13.0925
14.0884
15.1299
16.2177
17.3532
18.5387
19.7759
21.0682
22.4184
23.8306
25.3066
26.8479
28.4494
30.1156
31.8464
33.6449
35.5119
37.4499
39.4598
41.5442
43.7038
45.941
48.2565
50.6526
53.1299
55.6904
58.3345
61.0641
63.8794
66.782
69.7717
72.8501
76.0167
79.2726
82.617
86.0509
89.5728
93.1835
96.881
100.666
104.536
108.49
112.527
116.645
120.842
125.116
129.462
133.881
138.367
142.918
147.529
152.197
156.917
161.685
166.494
171.339
176.214
181.112
186.026
190.947
195.868
200.776
205.664
210.522
215.345
220.133
224.896
229.662
234.491
239.283
244.013
248.671
253.251
257.742
262.136
266.421
270.589
274.631
278.536
282.294
285.896
289.334
292.596
295.675
298.562
301.249
303.728
305.993
308.036
309.852
311.437
312.789
313.904
314.78
315.411
315.78
315.867
315.741
315.409
314.833
314.002
312.942
311.658
310.161
308.46
306.563
304.485
302.235
299.831
297.287
294.624
291.855
288.999
286.068
283.081
280.053
277.002
273.941
270.89
267.86
264.87
261.93
259.058
256.265
253.566
250.969
248.488
246.129
243.905
241.819
239.882
238.093
236.46
234.984
233.667
232.505
231.513
230.779
230.788
231.113
231.598
232.217
232.914
233.665
234.402
235.051
235.594
236.155
236.262
235.277
3.32484
1.58136
1.27349
1.22572
1.26699
1.35613
1.47988
1.63381
1.81577
2.0247
2.26006
2.52172
2.80976
3.12442
3.46566
3.83328
4.22712
4.6476
5.09537
5.57144
6.07669
6.61214
7.17856
7.77697
8.40825
9.07381
9.77532
10.511
11.2777
12.0718
12.8989
13.7637
14.6672
15.611
16.5963
17.6248
18.6978
19.8168
20.9829
22.1974
23.4609
24.7742
26.1379
27.5539
29.0237
30.548
32.1278
33.7643
35.4586
37.212
39.0254
40.9
42.8366
44.8364
46.9
49.0284
51.2221
53.482
55.8085
58.2022
60.6634
63.1926
65.7898
68.4552
71.1887
73.9903
76.8595
79.7961
82.7993
85.8686
89.003
92.2016
95.4629
98.7859
102.169
105.61
109.107
112.658
116.261
119.913
123.612
127.353
131.135
134.953
138.803
142.682
146.585
150.508
154.445
158.392
162.345
166.297
170.244
174.184
178.113
182.034
185.949
189.863
193.771
197.643
201.47
205.242
208.955
212.599
216.168
219.654
223.049
226.345
229.536
232.612
235.566
238.39
241.078
243.621
246.013
248.246
250.315
252.214
253.936
255.478
256.835
258.005
258.983
259.769
260.36
260.735
260.879
260.879
260.68
260.29
259.704
258.933
257.984
256.861
255.574
254.129
252.536
250.805
248.947
246.976
244.903
242.742
240.504
238.204
235.853
233.464
231.05
228.625
226.199
223.787
221.399
219.047
216.742
214.495
212.315
210.213
208.195
206.271
204.446
202.727
201.119
199.626
198.251
196.995
195.863
194.853
193.969
193.249
192.833
192.6
192.501
192.482
192.49
192.543
192.539
192.491
192.437
192.5
192.661
193.325
4.84083
2.19548
1.73608
1.63619
1.65394
1.73554
1.86143
2.02397
2.21969
2.44662
2.7032
2.98798
3.29947
3.63633
3.99737
4.38177
4.78908
5.2194
5.67314
6.15111
6.65414
7.18324
7.73927
8.32314
8.93545
9.57662
10.2463
10.9464
11.6801
12.4512
13.2595
14.105
14.9883
15.9107
16.8733
17.8775
18.9246
20.0162
21.1519
22.3326
23.5586
24.8306
26.1485
27.5117
28.9246
30.3886
31.9046
33.4738
35.0972
36.776
38.511
40.3034
42.1539
44.0637
46.0335
48.0641
50.1561
52.3101
54.5269
56.8069
59.1505
61.5583
64.0304
66.5673
69.1687
71.835
74.5658
77.361
80.2201
83.1428
86.1282
89.1757
92.2842
95.4527
98.6796
101.964
105.303
108.696
112.14
115.634
119.174
122.758
126.383
130.046
133.743
137.472
141.227
145.006
148.804
152.619
156.444
160.277
164.114
167.952
171.787
175.619
179.444
183.261
187.057
190.819
194.539
198.21
201.825
205.376
208.856
212.257
215.573
218.795
221.917
224.929
227.826
230.598
233.24
235.743
238.1
240.306
242.353
244.236
245.949
247.487
248.846
250.023
251.014
251.818
252.431
252.841
253.031
253.064
252.905
252.561
252.03
251.321
250.437
249.384
248.17
246.803
245.289
243.64
241.866
239.978
237.987
235.907
233.748
231.523
229.244
226.923
224.572
222.203
219.829
217.46
215.107
212.782
210.495
208.256
206.073
203.956
201.912
199.949
198.072
196.288
194.6
193.013
191.529
190.148
188.872
187.698
186.628
185.678
184.896
184.242
183.687
183.187
182.711
182.242
181.753
181.255
180.777
180.446
180.347
180.837
6.16263
2.79685
2.20362
2.05956
2.05753
2.1317
2.25712
2.42328
2.62516
2.85985
3.12514
3.419
3.73946
4.08475
4.45338
4.84436
5.25716
5.69181
6.14873
6.62869
7.13262
7.66161
8.21671
8.79902
9.40956
10.0494
10.7197
11.422
12.1581
12.9294
13.7369
14.5812
15.4632
16.3839
17.3441
18.3447
19.3864
20.4698
21.5964
22.7674
23.9836
25.2462
26.5566
27.9169
29.3275
30.7892
32.303
33.8702
35.4917
37.1687
38.9024
40.6939
42.5443
44.4548
46.4267
48.4607
50.5573
52.7175
54.9419
57.2315
59.5869
62.0087
64.4974
67.0536
69.6775
72.3695
75.1297
77.958
80.8544
83.8187
86.8503
89.9487
93.1132
96.3427
99.6363
102.993
106.41
109.887
113.421
117.01
120.653
124.345
128.085
131.87
135.695
139.558
143.455
147.382
151.336
155.311
159.306
163.314
167.331
171.354
175.378
179.398
183.409
187.403
191.372
195.307
199.2
203.045
206.832
210.555
214.206
217.777
221.261
224.648
227.932
231.104
234.156
237.08
239.869
242.514
245.009
247.346
249.518
251.52
253.345
254.988
256.444
257.709
258.779
259.653
260.327
260.797
261.036
261.096
260.959
260.626
260.101
259.387
258.489
257.414
256.169
254.76
253.196
251.487
249.644
247.677
245.598
243.419
241.153
238.812
236.407
233.951
231.458
228.938
226.403
223.867
221.338
218.829
216.35
213.911
211.521
209.187
206.919
204.723
202.606
200.571
198.625
196.769
195.005
193.335
191.758
190.272
188.876
187.576
186.388
185.298
184.285
183.328
182.398
181.481
180.566
179.665
178.81
178.116
177.644
177.666
7.30631
3.36158
2.65395
2.46808
2.44765
2.5124
2.63375
2.79855
3.00038
3.23551
3.5013
3.79554
4.11624
4.46167
4.83044
5.22161
5.63472
6.0698
6.52727
7.00789
7.51259
8.0425
8.59872
9.18249
9.79496
10.4374
11.1111
11.8173
12.5573
13.3325
14.1436
14.9918
15.8779
16.803
17.768
18.774
19.8218
20.9126
22.0475
23.2278
24.4547
25.7294
27.0533
28.4277
29.8539
31.3329
32.8661
34.4546
36.0999
37.8033
39.566
41.3895
43.2749
45.2236
47.2364
49.315
51.4606
53.6746
55.958
58.3121
60.7377
63.236
65.8079
68.454
71.1751
73.9718
76.8446
79.7938
82.8194
85.9217
89.1003
92.3549
95.6849
99.0896
102.568
106.119
109.741
113.431
117.19
121.013
124.899
128.844
132.847
136.903
141.008
145.161
149.355
153.587
157.853
162.148
166.467
170.806
175.158
179.519
183.882
188.242
192.589
196.917
201.219
205.484
209.707
213.878
217.989
222.032
225.998
229.879
233.666
237.351
240.925
244.378
247.703
250.89
253.931
256.819
259.544
262.099
264.477
266.67
268.672
270.478
272.081
273.478
274.664
275.637
276.393
276.931
277.223
277.308
277.182
276.843
276.295
275.541
274.587
273.44
272.104
270.59
268.904
267.058
265.061
262.926
260.664
258.288
255.811
253.245
250.603
247.898
245.144
242.353
239.537
236.709
233.88
231.062
228.265
225.5
222.776
220.102
217.486
214.935
212.454
210.05
207.726
205.486
203.331
201.262
199.279
197.381
195.565
193.834
192.191
190.63
189.139
187.701
186.299
184.925
183.572
182.256
181.011
179.934
179.055
178.509
8.88767
3.98881
3.10373
2.85676
2.81019
2.86028
2.97318
3.13237
3.32972
3.56062
3.82207
4.11179
4.42791
4.76889
5.13354
5.52108
5.93114
6.3638
6.81943
7.29876
7.80267
8.33224
8.88856
9.47286
10.0863
10.7302
11.4058
12.1142
12.8567
13.6346
14.4488
15.3005
16.1907
17.1207
18.0915
19.1042
20.1601
21.2605
22.4066
23.5998
24.8415
26.1332
27.4762
28.8721
30.3224
31.8285
33.3919
35.0143
36.6972
38.4423
40.2512
42.1255
44.067
46.0771
48.1577
50.3103
52.5366
54.8384
57.2172
59.6745
62.2117
64.8304
67.5316
70.3168
73.1869
76.1429
79.1856
82.3157
85.5336
88.8397
92.234
95.7163
99.2863
102.943
106.686
110.514
114.426
118.419
122.492
126.641
130.866
135.161
139.525
143.953
148.442
152.987
157.583
162.226
166.91
171.631
176.382
181.158
185.951
190.755
195.563
200.367
205.159
209.93
214.671
219.374
224.03
228.629
233.164
237.624
241.999
246.281
250.46
254.527
258.47
262.282
265.952
269.471
272.829
276.018
279.029
281.853
284.482
286.908
289.124
291.124
292.902
294.452
295.77
296.853
297.697
298.303
298.643
298.748
298.619
298.256
297.66
296.838
295.794
294.535
293.067
291.399
289.54
287.5
285.291
282.924
280.412
277.768
275.006
272.139
269.181
266.145
263.046
259.898
256.712
253.503
250.283
247.064
243.857
240.673
237.521
234.411
231.351
228.349
225.411
222.542
219.747
217.031
214.394
211.839
209.366
206.975
204.663
202.431
200.281
198.208
196.205
194.262
192.369
190.52
188.717
186.974
185.323
183.845
182.54
181.459
10.921
4.67777
3.54694
3.21703
3.13506
3.16493
3.26545
3.4158
3.60578
3.82977
4.08429
4.36698
4.67605
5.01015
5.3683
5.74988
6.1546
6.58257
7.03416
7.51003
8.01099
8.53805
9.09228
9.67484
10.2869
10.9297
11.6045
12.3124
13.0549
13.833
14.6481
15.5013
16.3939
17.3272
18.3025
19.3212
20.3846
21.4943
22.6516
23.8584
25.1161
26.4265
27.7913
29.2123
30.6911
32.2298
33.8301
35.494
37.2234
39.0204
40.887
42.8254
44.8375
46.9256
49.0917
51.338
53.6667
56.0799
58.5795
61.1678
63.8466
66.6178
69.4832
72.4444
75.503
78.6604
81.9177
85.2761
88.7362
92.2988
95.964
99.732
103.603
107.575
111.649
115.822
120.094
124.462
128.924
133.478
138.12
142.847
147.654
152.539
157.495
162.519
167.604
172.745
177.936
183.17
188.441
193.74
199.061
204.395
209.733
215.067
220.387
225.683
230.946
236.166
241.333
246.437
251.467
256.413
261.265
266.011
270.642
275.146
279.513
283.732
287.793
291.686
295.399
298.924
302.251
305.37
308.273
310.951
313.396
315.602
317.561
319.269
320.72
321.91
322.836
323.498
323.871
323.981
323.83
323.418
322.749
321.828
320.66
319.253
317.613
315.749
313.671
311.389
308.916
306.264
303.447
300.477
297.37
294.14
290.802
287.37
283.858
280.283
276.657
272.995
269.31
265.614
261.92
258.238
254.58
250.956
247.373
243.841
240.365
236.953
233.61
230.34
227.146
224.031
220.996
218.042
215.169
212.378
209.669
207.041
204.491
202.013
199.604
197.261
194.988
192.801
190.728
188.832
187.092
185.509
12.9121
5.33118
3.95074
3.53373
3.413
3.42002
3.5059
3.64551
3.82652
4.0422
4.28858
4.56309
4.86398
5.19002
5.54036
5.91451
6.31227
6.73378
7.17939
7.64972
8.14555
8.66782
9.21757
9.7959
10.4039
11.043
11.7142
12.419
13.1587
13.9346
14.7482
15.6007
16.4937
17.4286
18.4069
19.4302
20.5001
21.6183
22.7866
24.0069
25.2812
26.6116
28.0001
29.4489
30.9602
32.536
34.1789
35.891
37.6749
39.5331
41.468
43.4824
45.5787
47.7598
50.0281
52.3866
54.8379
57.3847
60.0295
62.7751
65.6239
68.5785
71.641
74.8137
78.0986
81.4976
85.0122
88.644
92.394
96.2631
100.252
104.361
108.589
112.937
117.403
121.986
126.684
131.495
136.417
141.445
146.578
151.81
157.137
162.554
168.055
173.635
179.286
185.003
190.777
196.601
202.467
208.366
214.288
220.224
226.164
232.098
238.014
243.902
249.751
255.55
261.286
266.949
272.528
278.009
283.383
288.636
293.757
298.734
303.555
308.21
312.685
316.971
321.056
324.929
328.581
332.001
335.179
338.108
340.778
343.182
345.312
347.164
348.731
350.01
350.997
351.691
352.072
352.161
351.958
351.466
350.689
349.633
348.304
346.709
344.856
342.753
340.412
337.843
335.06
332.074
328.901
325.555
322.051
318.404
314.63
310.745
306.764
302.702
298.576
294.398
290.185
285.949
281.704
277.46
273.23
269.024
264.852
260.722
256.643
252.621
248.663
244.774
240.959
237.221
233.564
229.989
226.5
223.098
219.784
216.561
213.43
210.389
207.438
204.579
201.817
199.168
196.656
194.33
192.15
190.093
14.757
5.91879
4.30152
3.80032
3.63954
3.62422
3.69427
3.8222
3.99346
4.20025
4.43801
4.70396
4.99625
5.31371
5.65557
6.02143
6.41117
6.82492
7.26302
7.72608
8.21491
8.73045
9.27377
9.84598
10.4479
11.0808
11.7462
12.4456
13.1804
13.9523
14.7625
15.6129
16.505
17.4405
18.4211
19.4487
20.5252
21.6523
22.8322
24.0666
25.3589
26.7116
28.1271
29.6079
31.1566
32.7759
34.4686
36.2376
38.0859
40.0165
42.0325
44.1371
46.3337
48.6254
51.0156
53.5077
56.1051
58.811
61.6287
64.5616
67.6127
70.7852
74.0818
77.5054
81.0585
84.7434
88.5622
92.5166
96.608
100.838
105.206
109.714
114.361
119.146
124.069
129.128
134.32
139.644
145.095
150.671
156.366
162.176
168.096
174.119
180.238
186.447
192.737
199.1
205.528
212.011
218.54
225.103
231.691
238.291
244.892
251.482
258.049
264.58
271.063
277.484
283.832
290.092
296.252
302.299
308.219
314.001
319.629
325.093
330.378
335.472
340.363
345.04
349.49
353.701
357.664
361.368
364.803
367.959
370.828
373.402
375.675
377.638
379.289
380.621
381.632
382.318
382.669
382.698
382.402
381.788
380.86
379.626
378.091
376.263
374.152
371.765
369.115
366.213
363.072
359.707
356.131
352.361
348.411
344.299
340.04
335.652
331.15
326.551
321.872
317.127
312.333
307.503
302.651
297.791
292.933
288.091
283.273
278.491
273.752
269.066
264.439
259.877
255.388
250.975
246.646
242.403
238.251
234.195
230.238
226.387
222.643
219.012
215.496
212.1
208.832
205.706
202.741
199.976
197.355
194.849
16.4009
6.42794
4.59455
4.01516
3.81546
3.77857
3.8331
3.9492
4.11054
4.30831
4.53743
4.79481
5.07852
5.38734
5.72052
6.07773
6.45894
6.86439
7.29397
7.74846
8.22884
8.73621
9.27187
9.83759
10.4329
11.0596
11.7192
12.4132
13.1432
13.9109
14.718
15.5662
16.4575
17.3938
18.3771
19.4096
20.4934
21.6307
22.8238
24.0753
25.3901
26.7704
28.2191
29.7392
31.3342
33.0071
34.7614
36.6005
38.5279
40.5475
42.663
44.8784
47.1975
49.6244
52.1631
54.8178
57.5925
60.4912
63.5181
66.677
69.9718
73.4061
76.9834
80.7071
84.58
88.6051
92.7847
97.1208
101.615
106.269
111.083
116.057
121.192
126.486
131.938
137.546
143.306
149.217
155.273
161.471
167.804
174.267
180.853
187.554
194.363
201.271
208.268
215.344
222.489
229.693
236.942
244.226
251.531
258.844
266.152
273.44
280.695
287.903
295.049
302.118
309.097
315.97
322.723
329.342
335.813
342.119
348.249
354.187
359.92
365.435
370.718
375.757
380.54
385.055
389.291
393.237
396.884
400.221
403.241
405.936
408.297
410.321
412
413.331
414.311
414.936
415.202
415.116
414.673
413.881
412.749
411.284
409.491
407.38
404.96
402.24
399.232
395.949
392.404
388.612
384.587
380.347
375.908
371.285
366.497
361.561
356.495
351.314
346.038
340.681
335.261
329.793
324.291
318.769
313.24
307.716
302.209
296.73
291.288
285.894
280.554
275.278
270.073
264.946
259.905
254.956
250.106
245.362
240.732
236.223
231.843
227.599
223.499
219.549
215.76
212.144
208.715
205.505
202.448
199.514
17.8093
6.853
4.82969
4.18041
3.94494
3.88758
3.92723
4.03179
4.18338
4.37233
4.59304
4.84217
5.11767
5.4183
5.74295
6.09148
6.46413
6.86159
7.28355
7.73066
8.20369
8.70358
9.2312
9.78736
10.3738
10.9923
11.6444
12.3318
13.0565
13.8202
14.625
15.4731
16.3665
17.3076
18.2987
19.3424
20.4417
21.5985
22.8152
24.0945
25.4412
26.8592
28.3526
29.9254
31.5821
33.3262
35.1617
37.0926
39.1233
41.2582
43.502
45.8593
48.3349
50.9337
53.6605
56.5201
59.5175
62.6575
65.9448
69.3841
72.9798
76.7362
80.6574
84.747
89.0086
93.445
98.059
102.853
107.828
112.985
118.326
123.849
129.555
135.441
141.506
147.747
154.16
160.741
167.484
174.384
181.434
188.627
195.954
203.406
210.973
218.645
226.411
234.258
242.174
250.147
258.163
266.207
274.265
282.321
290.361
298.368
306.327
314.221
322.034
329.751
337.355
344.829
352.159
359.328
366.321
373.122
379.715
386.087
392.222
398.107
403.727
409.071
414.126
418.879
423.321
427.44
431.227
434.672
437.768
440.507
442.882
444.889
446.521
447.777
448.651
449.143
449.251
448.981
448.318
447.282
445.882
444.123
442.013
439.56
436.775
433.667
430.249
426.534
422.536
418.27
413.752
408.998
404.026
398.853
393.495
387.973
382.303
376.504
370.593
364.589
358.508
352.366
346.179
339.961
333.726
327.488
321.259
315.05
308.873
302.738
296.655
290.634
284.684
278.814
273.033
267.351
261.777
256.322
250.996
245.81
240.775
235.903
231.205
226.689
222.368
218.254
214.356
210.701
207.216
203.877
18.9646
7.19293
5.00935
4.30004
4.03297
3.95685
3.98271
4.07641
4.21882
4.39962
4.61243
4.85381
5.12179
5.41541
5.73326
6.07497
6.44041
6.82941
7.24224
7.68018
8.14427
8.63565
9.15565
9.70565
10.287
10.9015
11.5506
12.2366
12.9614
13.7273
14.5368
15.3928
16.297
17.252
18.2607
19.326
20.4504
21.6355
22.8866
24.2088
25.6067
27.0847
28.6474
30.2993
32.0455
33.8914
35.8415
37.9007
40.0742
42.3674
44.7859
47.3353
50.0212
52.8493
55.8252
58.9548
62.2437
65.6973
69.3212
73.1207
77.1005
81.2656
85.6202
90.1683
94.9134
99.8586
105.006
110.358
115.916
121.68
127.65
133.825
140.204
146.784
153.562
160.534
167.694
175.037
182.557
190.244
198.092
206.091
214.229
222.498
230.884
239.375
247.957
256.618
265.341
274.113
282.917
291.737
300.557
309.359
318.126
326.841
335.485
344.041
352.491
360.818
369.004
377.031
384.883
392.542
399.992
407.216
414.198
420.923
427.376
433.543
439.411
444.965
450.195
455.088
459.634
463.823
467.647
471.096
474.164
476.844
479.13
481.018
482.504
483.586
484.262
484.529
484.393
483.842
482.876
481.52
479.776
477.652
475.156
472.295
469.082
465.528
461.644
457.444
452.943
448.156
443.101
437.792
432.248
426.487
420.526
414.384
408.079
401.631
395.058
388.378
381.609
374.769
367.872
360.935
353.972
346.997
340.023
333.064
326.131
319.236
312.391
305.606
298.893
292.263
285.727
279.297
272.985
266.806
260.772
254.898
249.199
243.69
238.386
233.3
228.443
223.829
219.463
215.368
211.466
207.748
19.8591
7.44872
5.13688
4.37862
4.08506
3.99259
4.00649
4.09042
4.22459
4.39847
4.60527
4.841
5.1031
5.38982
5.70027
6.03463
6.39308
6.77612
7.18408
7.61777
8.07822
8.56677
9.0849
9.63434
10.2171
10.8346
11.4887
12.1818
12.9166
13.6956
14.5215
15.3968
16.3223
17.3029
18.3423
19.4446
20.6141
21.8549
23.1719
24.5703
26.0551
27.6318
29.3058
31.0829
32.9692
34.9706
37.0928
39.3422
41.7251
44.2482
46.9182
49.7416
52.7249
55.8747
59.1974
62.6993
66.3869
70.2662
74.3429
78.6228
83.1109
87.8119
92.73
97.869
103.232
108.821
114.638
120.684
126.959
133.463
140.193
147.148
154.325
161.719
169.325
177.137
185.149
193.351
201.736
210.294
219.013
227.884
236.892
246.025
255.269
264.609
274.029
283.514
293.046
302.609
312.185
321.756
331.304
340.809
350.252
359.614
368.877
378.021
387.026
395.875
404.548
413.027
421.294
429.331
437.121
444.648
451.894
458.845
465.485
471.801
477.778
483.406
488.672
493.565
498.076
502.197
505.918
509.234
512.139
514.626
516.693
518.334
519.55
520.34
520.701
520.634
520.141
519.198
517.841
516.073
513.9
511.33
508.371
505.032
501.326
497.263
492.855
488.118
483.065
477.713
472.078
466.177
460.027
453.646
447.053
440.265
433.302
426.184
418.928
411.555
404.082
396.527
388.908
381.238
373.535
365.813
358.085
350.366
342.669
335.007
327.393
319.838
312.357
304.962
297.666
290.485
283.434
276.528
269.785
263.223
256.861
250.718
244.811
239.156
233.77
228.661
223.836
219.313
215.012
210.946
20.4853
7.61879
5.21451
4.42042
4.1069
4.00133
4.00597
4.08305
4.21147
4.37952
4.58047
4.81086
5.06847
5.35198
5.66045
5.9937
6.3521
6.73571
7.14515
7.58152
8.04612
8.54053
9.06648
9.62584
10.2204
10.851
11.5211
12.2338
12.9922
13.7996
14.6594
15.5755
16.5517
17.592
18.7012
19.884
21.1457
22.492
23.9285
25.4614
27.097
28.8417
30.7022
32.6855
34.799
37.0493
39.4439
41.9907
44.6976
47.573
50.6247
53.8602
57.2865
60.9104
64.7389
68.7786
73.0359
77.5168
82.2269
87.1713
92.3544
97.78
103.451
109.371
115.539
121.959
128.628
135.546
142.712
150.122
157.773
165.659
173.775
182.115
190.671
199.433
208.394
217.542
226.865
236.353
245.991
255.766
265.663
275.666
285.761
295.929
306.154
316.416
326.699
336.983
347.249
357.477
367.648
377.742
387.738
397.617
407.358
416.941
426.348
435.557
444.551
453.31
461.816
470.052
478.001
485.645
492.969
499.956
506.594
512.869
518.768
524.28
529.395
534.103
538.397
542.268
545.711
548.722
551.294
553.426
555.114
556.356
557.152
557.51
557.42
556.892
555.895
554.466
552.609
550.331
547.636
544.534
541.033
537.142
532.875
528.242
523.256
517.93
512.281
506.323
500.073
493.549
486.766
479.743
472.497
465.048
457.413
449.612
441.665
433.592
425.409
417.137
408.792
400.391
391.948
383.48
375.001
366.526
358.069
349.645
341.267
332.949
324.707
316.555
308.509
300.585
292.803
285.182
277.741
270.504
263.491
256.725
250.228
244.02
238.119
232.534
227.268
222.34
217.666
213.288
20.9353
7.73318
5.25681
4.4348
4.1066
3.99236
3.99034
4.06147
4.18596
4.35265
4.55428
4.78663
5.04734
5.33508
5.64916
5.98938
6.35578
6.74818
7.1682
7.61739
8.0975
8.61056
9.15883
9.74485
10.3715
11.0417
11.7589
12.5267
13.3492
14.2307
15.1761
16.1903
17.2787
18.4467
19.7005
21.0463
22.4911
24.042
25.7063
27.4921
29.407
31.4594
33.6571
36.0085
38.5208
41.2029
44.0644
47.1148
50.3639
53.823
57.5017
61.4064
65.5432
69.9182
74.5374
79.4065
84.5303
89.9134
95.5594
101.471
107.651
114.1
120.817
127.804
135.057
142.573
150.351
158.384
166.668
175.195
183.96
192.953
202.165
211.587
221.209
231.017
241.002
251.148
261.442
271.87
282.417
293.066
303.801
314.606
325.462
336.352
347.256
358.157
369.033
379.867
390.637
401.326
411.911
422.373
432.692
442.848
452.821
462.59
472.138
481.444
490.49
499.258
507.731
515.89
523.721
531.207
538.333
545.085
551.449
557.415
562.971
568.107
572.816
577.088
580.92
584.304
587.237
589.717
591.74
593.306
594.415
595.063
595.253
595.009
594.293
593.116
591.498
589.443
586.957
584.047
580.721
576.985
572.849
568.321
563.414
558.14
552.511
546.54
540.243
533.634
526.73
519.547
512.102
504.411
496.491
488.36
480.038
471.544
462.897
454.116
445.22
436.228
427.158
418.025
408.846
399.636
390.411
381.186
371.976
362.798
353.666
344.596
335.605
326.709
317.926
309.276
300.78
292.46
284.341
276.449
268.807
261.442
254.38
247.64
241.235
235.184
229.494
224.182
219.16
214.52
21.168
7.76803
5.25666
4.42524
4.09168
3.97386
3.97307
4.04874
4.17952
4.35372
4.56339
4.80544
5.07789
5.37972
5.7106
6.07086
6.46137
6.88329
7.33824
7.8284
8.35631
8.92496
9.53768
10.1983
10.9109
11.6801
12.5109
13.4086
14.3788
15.4281
16.5631
17.7911
19.1197
20.5569
22.1113
23.7919
25.608
27.5694
29.6859
31.9675
34.4243
37.0664
39.9036
42.9456
46.2014
49.6808
53.3935
57.3491
61.5567
66.0254
70.7677
75.7876
81.0869
86.6679
92.5322
98.6815
105.116
111.835
118.838
126.122
133.684
141.52
149.624
157.99
166.612
175.481
184.589
193.927
203.486
213.254
223.22
233.374
243.704
254.196
264.837
275.615
286.515
297.522
308.622
319.798
331.036
342.318
353.628
364.949
376.263
387.554
398.802
409.989
421.097
432.106
442.999
453.755
464.358
474.786
485.022
495.048
504.843
514.391
523.674
532.673
541.371
549.752
557.8
565.499
572.835
579.795
586.364
592.528
598.277
603.602
608.495
612.947
616.951
620.502
623.599
626.236
628.41
630.126
631.378
632.169
632.503
632.373
631.803
630.745
629.257
627.328
624.964
622.172
618.96
615.333
611.3
606.866
602.04
596.829
591.247
585.304
579.01
572.38
565.426
558.165
550.611
542.779
534.684
526.342
517.769
508.983
500.002
490.843
481.528
472.074
462.501
452.826
443.068
433.244
423.368
413.457
403.526
393.591
383.67
373.779
363.935
354.154
344.454
334.858
325.382
316.049
306.882
297.908
289.146
280.625
272.379
264.439
256.839
249.615
242.789
236.359
230.326
224.712
219.418
214.587
21.221
7.74704
5.23206
4.40163
4.07499
3.96813
3.97905
4.06719
4.2128
4.40498
4.63756
4.90707
5.21185
5.55149
5.92645
6.33799
6.788
7.27899
7.81398
8.39663
9.0312
9.72256
10.4761
11.2979
12.1945
13.1735
14.2427
15.4106
16.6864
18.08
19.6019
21.2633
23.0757
25.0512
27.202
29.5406
32.0796
34.8318
37.8093
41.0238
44.4865
48.2082
52.1991
56.4677
61.0212
65.8669
71.012
76.4616
82.2199
88.2931
94.684
101.391
108.406
115.721
123.33
131.225
139.399
147.843
156.548
165.504
174.701
184.127
193.771
203.623
213.669
223.898
234.297
244.855
255.558
266.395
277.352
288.419
299.581
310.827
322.143
333.517
344.935
356.383
367.848
379.316
390.773
402.203
413.593
424.926
436.189
447.364
458.438
469.393
480.214