/*--------------------------------*- C++ -*----------------------------------*\
| =========                 |                                                 |
| \\      /  F ield         | OpenFOAM: The Open Source CFD Toolbox           |
|  \\    /   O peration     | Version:  v1712                                 |
|   \\  /    A nd           | Web:      www.OpenFOAM.com                      |
|    \\/     M anipulation  |                                                 |
\*---------------------------------------------------------------------------*/
FoamFile
{
    version     2.0;
    format      ascii;
    class       volScalarField;
    location    "200";
    object      k;
}
// * * * * * * * * * * * * * * * * * * * * * * * * * * * * * * * * * * * * * //

dimensions      [0 2 -2 0 0 0 0];


internalField   nonuniform List<scalar> 
12225
(
0.571497
0.987649
1.28116
1.45558
1.54167
1.57743
1.57567
1.56724
1.54714
1.52373
1.50047
1.47801
1.45796
1.43901
1.42339
1.40766
1.39704
1.38229
0.43845
0.49688
0.521949
0.534909
0.542875
0.547415
0.550224
0.552222
0.55606
0.559395
0.565591
0.571078
0.579569
0.586836
0.596779
0.605233
0.615303
0.625145
0.38757
0.417492
0.424187
0.421531
0.415046
0.404957
0.393815
0.382791
0.371953
0.362408
0.353261
0.346094
0.338994
0.334326
0.329125
0.326695
0.323051
0.322334
0.37618
0.384817
0.388124
0.387417
0.385436
0.381133
0.375688
0.369558
0.363119
0.35656
0.35011
0.343802
0.33782
0.332064
0.326778
0.321681
0.317167
0.312722
0.374178
0.375374
0.376397
0.37593
0.374799
0.372506
0.369617
0.366136
0.362485
0.35847
0.354556
0.350371
0.34652
0.342385
0.338793
0.334821
0.331607
0.327848
0.373737
0.372544
0.371997
0.371082
0.369918
0.368266
0.36634
0.364031
0.361641
0.358967
0.356373
0.353537
0.350916
0.348048
0.345521
0.342702
0.340349
0.337627
0.373769
0.371725
0.370231
0.368831
0.367465
0.36594
0.364345
0.362552
0.360734
0.35875
0.356813
0.354731
0.352769
0.350666
0.348748
0.346672
0.344852
0.342831
0.373818
0.371563
0.369621
0.36786
0.366251
0.364663
0.363122
0.361522
0.359945
0.358298
0.356695
0.355026
0.353429
0.351769
0.350213
0.348588
0.347103
0.345524
0.373833
0.371554
0.369458
0.367511
0.365722
0.364025
0.362428
0.360861
0.359355
0.357852
0.356401
0.354943
0.353541
0.35213
0.350785
0.349426
0.348149
0.346843
0.373832
0.37156
0.369425
0.36741
0.36553
0.363752
0.362086
0.360493
0.358981
0.357516
0.356115
0.354748
0.353437
0.352151
0.350919
0.349706
0.348551
0.347405
0.37383
0.371561
0.369417
0.367384
0.365468
0.363653
0.361942
0.360317
0.358779
0.357309
0.355912
0.35457
0.353289
0.352054
0.350872
0.349729
0.348635
0.347574
0.373828
0.371559
0.369412
0.367375
0.365448
0.36362
0.36189
0.360247
0.358691
0.35721
0.355803
0.35446
0.353181
0.351958
0.35079
0.34967
0.348599
0.347571
0.373827
0.371557
0.369407
0.367369
0.365437
0.363603
0.361865
0.360214
0.358646
0.357156
0.35574
0.354391
0.353107
0.351884
0.350716
0.349602
0.348537
0.347521
0.373827
0.371555
0.369403
0.367362
0.365428
0.363591
0.361848
0.360193
0.358619
0.357123
0.3557
0.354346
0.353056
0.351828
0.350657
0.349541
0.348475
0.347459
0.373826
0.371553
0.369399
0.367357
0.36542
0.363581
0.361835
0.360177
0.3586
0.3571
0.355673
0.354315
0.353021
0.351789
0.350614
0.349494
0.348425
0.347406
0.373826
0.371552
0.369396
0.367352
0.365413
0.363572
0.361824
0.360163
0.358584
0.357082
0.355652
0.354291
0.352994
0.351759
0.350581
0.349458
0.348386
0.347364
0.373825
0.371551
0.369395
0.367349
0.365408
0.363566
0.361816
0.360153
0.358571
0.357067
0.355635
0.354272
0.352973
0.351735
0.350555
0.34943
0.348356
0.347331
0.373825
0.371551
0.369393
0.367347
0.365405
0.363561
0.36181
0.360145
0.358563
0.357057
0.355623
0.354258
0.352958
0.351718
0.350536
0.34941
0.348334
0.347308
0.373825
0.371551
0.369393
0.367347
0.365404
0.36356
0.361808
0.360143
0.358559
0.357052
0.355618
0.354252
0.352951
0.35171
0.350528
0.3494
0.348324
0.347297
0.373825
0.371551
0.369394
0.367348
0.365406
0.363562
0.361811
0.360146
0.358562
0.357056
0.355622
0.354256
0.352955
0.351715
0.350532
0.349405
0.348329
0.347302
0.373826
0.371552
0.369396
0.367351
0.36541
0.363567
0.361816
0.360153
0.358571
0.357065
0.355633
0.354269
0.352969
0.35173
0.35055
0.349423
0.348349
0.347323
0.373826
0.371553
0.369398
0.367355
0.365416
0.363575
0.361828
0.360168
0.358591
0.357092
0.355665
0.354306
0.353012
0.351779
0.350603
0.34948
0.348408
0.347383
0.373826
0.371555
0.369401
0.367363
0.365432
0.363605
0.361875
0.360237
0.358681
0.357203
0.355794
0.354451
0.353167
0.351939
0.350762
0.349635
0.348552
0.347512
0.373826
0.371556
0.369413
0.367418
0.365544
0.363794
0.362138
0.360572
0.359071
0.357632
0.35624
0.354896
0.353589
0.352323
0.35109
0.349894
0.348728
0.347601
0.373819
0.371564
0.369582
0.367846
0.366223
0.364712
0.363219
0.361754
0.360267
0.358787
0.357288
0.3558
0.354306
0.352833
0.351361
0.349924
0.348495
0.347109
0.373767
0.371946
0.370917
0.369978
0.368912
0.367767
0.366326
0.364737
0.362934
0.361062
0.35906
0.357054
0.354971
0.352925
0.350845
0.348825
0.346791
0.344839
0.374093
0.375201
0.37726
0.37756
0.377092
0.375804
0.373488
0.370864
0.367802
0.364686
0.361328
0.358027
0.354602
0.351291
0.347922
0.3447
0.341472
0.338414
0.377677
0.394076
0.402944
0.402353
0.400308
0.396045
0.390665
0.385166
0.379133
0.373303
0.367221
0.361476
0.355719
0.350305
0.345128
0.340198
0.335726
0.331325
0.405777
0.438977
0.451189
0.45581
0.459111
0.462261
0.464972
0.467229
0.469223
0.470844
0.472492
0.473928
0.475548
0.477075
0.479213
0.480839
0.483679
0.485395
0.479012
0.684927
0.865146
0.990809
1.09437
1.17583
1.23938
1.28341
1.31504
1.33206
1.3432
1.34353
1.34141
1.33629
1.32784
1.31772
1.3068
1.29535
0.00433509
0.00709999
0.0100101
0.0125386
0.014587
0.016202
0.0175396
0.0187655
0.0198782
0.0209388
0.0219977
0.0231174
0.0243607
0.0258576
0.0276595
0.0296983
0.031895
0.0342496
0.0367538
0.039441
0.0423095
0.0453918
0.0486776
0.0521926
0.055921
0.0598879
0.0640822
0.0684958
0.0730877
0.0778687
0.0828105
0.0879278
0.0931956
0.0986294
0.104205
0.109941
0.115815
0.121856
0.12806
0.134478
0.141129
0.148099
0.155243
0.16256
0.170031
0.177686
0.1855
0.1935
0.201665
0.210019
0.218541
0.227256
0.236141
0.24522
0.254472
0.263921
0.273542
0.283358
0.293347
0.30353
0.313882
0.324424
0.335132
0.346026
0.357079
0.36831
0.379692
0.391245
0.402937
0.414788
0.426768
0.438894
0.451134
0.463505
0.475974
0.488556
0.501217
0.513973
0.526788
0.539676
0.552603
0.565579
0.578569
0.591585
0.604586
0.617583
0.630538
0.643455
0.656299
0.669067
0.68173
0.694261
0.706633
0.718818
0.730788
0.742517
0.753993
0.765237
0.776341
0.787196
0.797802
0.808136
0.818192
0.827946
0.837383
0.846487
0.855237
0.863618
0.871612
0.879203
0.886373
0.893107
0.899389
0.905204
0.910539
0.915378
0.919714
0.923533
0.926826
0.929583
0.931801
0.933477
0.93462
0.935233
0.935338
0.934759
0.933621
0.931895
0.929807
0.927224
0.924022
0.920338
0.91616
0.911505
0.9064
0.900857
0.894907
0.888565
0.881859
0.874816
0.867497
0.859932
0.852154
0.844199
0.836098
0.82789
0.819605
0.811284
0.802956
0.794663
0.786427
0.778291
0.77028
0.762431
0.754768
0.747322
0.740115
0.733174
0.726516
0.720161
0.714124
0.708415
0.703044
0.698025
0.69335
0.689012
0.685113
0.682989
0.683398
0.683837
0.684667
0.685805
0.687193
0.688754
0.690451
0.692064
0.693197
0.693442
0.691581
0.671137
0.0107627
0.0175929
0.0242269
0.0293436
0.0335918
0.0372986
0.0406414
0.0437852
0.0469137
0.0501437
0.0535388
0.0571302
0.0609261
0.0649248
0.0691163
0.0734971
0.0780624
0.0828236
0.0877962
0.0930066
0.0984745
0.104224
0.110269
0.116624
0.123295
0.130291
0.137611
0.145261
0.153235
0.161532
0.170145
0.179077
0.188325
0.197897
0.207789
0.218011
0.228544
0.239377
0.250506
0.261938
0.27367
0.285705
0.298026
0.310646
0.323563
0.336791
0.350327
0.364183
0.378359
0.392864
0.407697
0.422869
0.438377
0.454232
0.470431
0.486984
0.503886
0.521147
0.538763
0.556741
0.575074
0.59377
0.612822
0.632235
0.652
0.672122
0.69259
0.713406
0.734559
0.756049
0.777862
0.799999
0.822443
0.845191
0.868226
0.891544
0.915123
0.938959
0.963031
0.98733
1.01183
1.03653
1.0614
1.08642
1.11157
1.13684
1.16219
1.1876
1.21305
1.23851
1.26396
1.28935
1.31464
1.33979
1.36475
1.38948
1.41389
1.43792
1.46146
1.48467
1.50756
1.5301
1.55227
1.57401
1.59531
1.61612
1.6364
1.65613
1.67525
1.69374
1.71156
1.72866
1.74502
1.76059
1.77533
1.78923
1.80223
1.81432
1.82545
1.83561
1.84478
1.85293
1.86005
1.86614
1.8712
1.87522
1.87796
1.87943
1.88006
1.8799
1.87845
1.87596
1.87243
1.86791
1.86242
1.856
1.8487
1.84054
1.8316
1.82193
1.8116
1.80067
1.78921
1.77729
1.76498
1.75233
1.73943
1.72635
1.71315
1.69992
1.68671
1.67361
1.66068
1.64798
1.63559
1.62356
1.61195
1.60082
1.59022
1.58019
1.57077
1.562
1.55391
1.5465
1.53981
1.53382
1.52854
1.52418
1.52077
1.5181
1.51601
1.51435
1.51297
1.51166
1.51021
1.50838
1.50574
1.50221
1.49493
1.47101
0.0167283
0.0285207
0.0374974
0.0442428
0.0499258
0.0550502
0.0598903
0.0646322
0.069412
0.0743233
0.0794218
0.0847355
0.0902733
0.0960362
0.102022
0.108231
0.114669
0.121352
0.128297
0.135531
0.143074
0.150951
0.159179
0.167776
0.176752
0.186119
0.195882
0.206047
0.216613
0.227581
0.238945
0.250707
0.262863
0.275412
0.28835
0.301675
0.315381
0.329468
0.343931
0.358774
0.373993
0.389589
0.405562
0.421918
0.438658
0.45579
0.473316
0.491243
0.509575
0.528317
0.547472
0.567045
0.587038
0.607456
0.628301
0.649577
0.671284
0.693425
0.715999
0.739008
0.76245
0.786324
0.810628
0.835359
0.860514
0.886088
0.912074
0.938469
0.965262
0.992446
1.02001
1.04795
1.07625
1.10489
1.13387
1.16317
1.19277
1.22266
1.25282
1.28323
1.31386
1.34471
1.37574
1.40694
1.43827
1.46971
1.50124
1.53281
1.56442
1.59602
1.62758
1.65906
1.69042
1.72163
1.75265
1.78343
1.81395
1.84416
1.87404
1.90357
1.93271
1.96143
1.98968
2.01741
2.04459
2.07116
2.09707
2.12229
2.14676
2.17043
2.19326
2.2152
2.2362
2.25621
2.27519
2.2931
2.30989
2.32552
2.33996
2.35316
2.36511
2.37577
2.38512
2.39315
2.39985
2.4052
2.40917
2.41155
2.41255
2.41255
2.41106
2.40823
2.40409
2.39869
2.39205
2.38422
2.37527
2.36523
2.35419
2.34221
2.32937
2.31576
2.30145
2.28653
2.27108
2.2552
2.23896
2.22245
2.20578
2.18902
2.17226
2.15559
2.13911
2.12288
2.10699
2.09152
2.07653
2.0621
2.04828
2.03514
2.02271
2.01105
2.00019
1.99014
1.98092
1.97254
1.96496
1.9582
1.95225
1.94703
1.94237
1.9381
1.93404
1.92998
1.92571
1.92105
1.91576
1.9099
1.90135
1.88251
0.021497
0.0390692
0.0503307
0.0585713
0.0654627
0.0716766
0.0775676
0.0833574
0.0891952
0.0951818
0.101379
0.107821
0.11452
0.121481
0.128704
0.136194
0.14396
0.152018
0.160389
0.169097
0.178165
0.187617
0.197471
0.207745
0.218451
0.229597
0.241188
0.253224
0.265703
0.278627
0.291996
0.30581
0.320068
0.334766
0.349902
0.365473
0.381475
0.39791
0.414774
0.432068
0.449793
0.46795
0.486541
0.505571
0.525044
0.544964
0.565338
0.586171
0.607467
0.629233
0.65147
0.674186
0.697383
0.721065
0.745235
0.769897
0.795051
0.820701
0.846845
0.873486
0.900621
0.928251
0.956371
0.98498
1.01407
1.04364
1.07369
1.1042
1.13517
1.16658
1.19843
1.23071
1.26341
1.2965
1.32997
1.36381
1.398
1.43252
1.46735
1.50246
1.53784
1.57346
1.60929
1.64531
1.68149
1.71779
1.75419
1.79066
1.82716
1.86366
1.90012
1.93651
1.97279
2.00891
2.04483
2.08053
2.11596
2.15108
2.18585
2.22023
2.25417
2.28762
2.32053
2.35285
2.38453
2.41551
2.44574
2.47517
2.50374
2.5314
2.55809
2.58376
2.60834
2.6318
2.65407
2.6751
2.69485
2.71327
2.7303
2.74592
2.76009
2.77276
2.78393
2.79356
2.80163
2.80814
2.81309
2.81631
2.81778
2.81799
2.81657
2.81358
2.80907
2.80307
2.79563
2.7868
2.77663
2.76519
2.75256
2.73881
2.72404
2.70833
2.69177
2.67446
2.6565
2.63798
2.619
2.59967
2.58009
2.56036
2.54057
2.52084
2.50124
2.48189
2.46287
2.44426
2.42614
2.4086
2.39171
2.37551
2.36008
2.34546
2.33168
2.31877
2.30672
2.29554
2.28518
2.27563
2.26683
2.25872
2.25113
2.24392
2.23689
2.22986
2.22266
2.21519
2.20734
2.19931
2.18956
2.17345
0.0252544
0.0487742
0.0623918
0.07214
0.0801951
0.0873934
0.0941693
0.100786
0.107418
0.114184
0.121161
0.128396
0.135914
0.143729
0.151847
0.16028
0.169037
0.178135
0.187593
0.197434
0.207678
0.218346
0.229454
0.241017
0.253046
0.265547
0.278524
0.291982
0.30592
0.320341
0.335243
0.350627
0.366489
0.382829
0.399644
0.416934
0.434696
0.452933
0.471641
0.490824
0.510483
0.53062
0.551239
0.572346
0.593946
0.616046
0.638652
0.66177
0.685406
0.709566
0.734255
0.759479
0.785242
0.811549
0.838404
0.865811
0.893773
0.922292
0.951368
0.981005
1.0112
1.04195
1.07326
1.10513
1.13754
1.1705
1.204
1.23803
1.27258
1.30764
1.34321
1.37926
1.41579
1.45278
1.49021
1.52807
1.56633
1.60497
1.64397
1.6833
1.72295
1.76287
1.80305
1.84345
1.88404
1.92479
1.96566
2.00661
2.04762
2.08863
2.12963
2.17055
2.21137
2.25203
2.2925
2.33273
2.37267
2.41228
2.4515
2.49028
2.52858
2.56633
2.60348
2.63998
2.67577
2.71078
2.74496
2.77825
2.81058
2.8419
2.87214
2.90125
2.92916
2.95582
2.98115
3.00511
3.02765
3.0487
3.06821
3.08615
3.10246
3.11711
3.13006
3.1413
3.15079
3.15851
3.16448
3.16862
3.17076
3.17131
3.1701
3.16713
3.16243
3.15604
3.14801
3.13839
3.12724
3.11462
3.10063
3.08535
3.06886
3.05126
3.03266
3.01316
2.99285
2.97186
2.95029
2.92825
2.90586
2.88322
2.86044
2.83764
2.81491
2.79237
2.77011
2.74823
2.72682
2.70595
2.68572
2.66618
2.6474
2.62942
2.61228
2.59602
2.58063
2.5661
2.55242
2.53952
2.52738
2.51589
2.50493
2.49436
2.48401
2.47373
2.46341
2.45299
2.4425
2.4322
2.42088
2.40539
0.0282853
0.0575093
0.0733705
0.0845761
0.093745
0.101862
0.109431
0.116756
0.124039
0.131418
0.138989
0.146815
0.154939
0.163384
0.17217
0.181309
0.190818
0.200712
0.211007
0.221723
0.232878
0.244488
0.256566
0.269127
0.282177
0.295725
0.309775
0.32433
0.339392
0.354963
0.371043
0.387632
0.404729
0.422335
0.440449
0.459072
0.478203
0.497846
0.518002
0.538674
0.559866
0.581583
0.60383
0.626614
0.649941
0.67382
0.698256
0.723257
0.748831
0.774985
0.801725
0.829059
0.856992
0.885531
0.914682
0.944448
0.974835
1.00585
1.03748
1.06975
1.10264
1.13617
1.17032
1.2051
1.24051
1.27653
1.31317
1.35041
1.38825
1.42668
1.46568
1.50525
1.54536
1.586
1.62715
1.66879
1.7109
1.75346
1.79644
1.8398
1.88353
1.92759
1.97196
2.01658
2.06144
2.10649
2.15169
2.197
2.24239
2.28781
2.33321
2.37856
2.4238
2.46888
2.51376
2.55838
2.6027
2.64664
2.69016
2.73321
2.77572
2.81763
2.85889
2.89943
2.93919
2.97811
3.01611
3.05314
3.08913
3.12401
3.15772
3.19018
3.22134
3.25113
3.27948
3.30633
3.33162
3.35529
3.37729
3.39755
3.41603
3.43269
3.4475
3.4604
3.47139
3.48042
3.48751
3.49262
3.49559
3.49661
3.49576
3.49294
3.4882
3.48156
3.47307
3.46279
3.45079
3.43712
3.42189
3.40517
3.38706
3.36767
3.34709
3.32543
3.30282
3.27936
3.25518
3.23039
3.20512
3.17948
3.15359
3.12757
3.10154
3.0756
3.04986
3.02444
2.99941
2.97488
2.95092
2.92762
2.90503
2.88322
2.86223
2.84208
2.8228
2.80439
2.78681
2.77004
2.75402
2.73868
2.72391
2.70959
2.6956
2.68182
2.66817
2.65467
2.64139
2.62862
2.61536
2.59922
0.032183
0.0653714
0.0831464
0.0956459
0.105823
0.114777
0.123064
0.13102
0.138868
0.146764
0.154822
0.163121
0.171717
0.180649
0.189944
0.199622
0.209702
0.220201
0.231134
0.242517
0.254365
0.266691
0.279508
0.292826
0.306652
0.320994
0.335857
0.351244
0.367158
0.383601
0.400577
0.418085
0.436128
0.454708
0.473826
0.493485
0.513688
0.534439
0.555742
0.577602
0.600026
0.623019
0.64659
0.670747
0.695497
0.72085
0.746814
0.773398
0.800612
0.828464
0.856964
0.886119
0.915938
0.946429
0.977599
1.00945
1.042
1.07525
1.10919
1.14384
1.1792
1.21527
1.25205
1.28953
1.32773
1.36662
1.40622
1.4465
1.48746
1.5291
1.57139
1.61433
1.6579
1.70208
1.74684
1.79217
1.83805
1.88444
1.93132
1.97865
2.02641
2.07455
2.12305
2.17186
2.22095
2.27026
2.31977
2.36941
2.41915
2.46894
2.51873
2.56847
2.6181
2.66757
2.71681
2.76578
2.81441
2.86265
2.91042
2.95767
3.00434
3.05035
3.09566
3.14018
3.18386
3.22661
3.26838
3.3091
3.34869
3.38707
3.4242
3.45998
3.49435
3.52724
3.55858
3.5883
3.61633
3.64262
3.6671
3.6897
3.71039
3.7291
3.74579
3.76042
3.77296
3.78338
3.79167
3.79781
3.80169
3.80333
3.80293
3.80037
3.79568
3.78889
3.78004
3.7692
3.75642
3.74179
3.72538
3.70729
3.6876
3.66644
3.6439
3.62009
3.59515
3.56919
3.54233
3.51471
3.48644
3.45767
3.4285
3.39908
3.36952
3.33994
3.31045
3.28116
3.25219
3.22362
3.19555
3.16806
3.14122
3.11511
3.08977
3.06524
3.04157
3.01874
2.99677
2.97563
2.95527
2.93565
2.91669
2.89829
2.88037
2.86285
2.84569
2.82895
2.81274
2.79733
2.7818
2.76427
0.0369327
0.0722946
0.0916054
0.105195
0.116247
0.125943
0.134874
0.143398
0.151753
0.160108
0.168589
0.177287
0.186272
0.195592
0.205284
0.215375
0.225887
0.236839
0.248245
0.260122
0.27248
0.285333
0.298691
0.312563
0.326957
0.341879
0.357336
0.373331
0.38987
0.406956
0.424593
0.442785
0.461535
0.480848
0.500728
0.52118
0.542209
0.563823
0.586026
0.608827
0.632235
0.656257
0.680905
0.706187
0.732114
0.758698
0.785949
0.813878
0.842496
0.871816
0.901847
0.932601
0.964088
0.996318
1.0293
1.06305
1.09756
1.13285
1.16893
1.20579
1.24345
1.28191
1.32117
1.36122
1.40208
1.44373
1.48616
1.52939
1.57338
1.61814
1.66366
1.7099
1.75687
1.80453
1.85286
1.90185
1.95145
2.00166
2.05242
2.1037
2.15548
2.2077
2.26033
2.31333
2.36665
2.42024
2.47404
2.52802
2.58212
2.63628
2.69045
2.74457
2.79857
2.8524
2.90599
2.95928
3.01219
3.06468
3.11666
3.16807
3.21884
3.26891
3.3182
3.36664
3.41416
3.46069
3.50615
3.55047
3.59358
3.6354
3.67586
3.71488
3.75239
3.78832
3.82258
3.85512
3.88585
3.91471
3.94164
3.96656
3.98943
4.01017
4.02876
4.04513
4.05925
4.07109
4.08061
4.08782
4.09264
4.095
4.09512
4.0929
4.08833
4.08146
4.07232
4.06098
4.0475
4.03195
4.01442
3.99499
3.97376
3.95085
3.92635
3.90039
3.87309
3.84458
3.81499
3.78444
3.75308
3.72104
3.68845
3.65544
3.62214
3.58868
3.55518
3.52175
3.48851
3.45557
3.42302
3.39096
3.35948
3.32864
3.29853
3.26919
3.24067
3.213
3.1862
3.16026
3.13518
3.11091
3.08743
3.06468
3.0426
3.02115
3.00034
2.98024
2.96098
2.94279
2.92479
2.90546
0.041312
0.0780531
0.0986191
0.113124
0.124926
0.135271
0.144775
0.15381
0.162622
0.171391
0.180249
0.189297
0.19861
0.208248
0.218253
0.22866
0.239493
0.250773
0.262518
0.274742
0.287456
0.300674
0.314404
0.328656
0.343438
0.358758
0.374621
0.391035
0.408005
0.425537
0.443637
0.462312
0.481567
0.501409
0.521846
0.542885
0.564533
0.586801
0.609697
0.633232
0.657415
0.68226
0.707777
0.733981
0.760882
0.788497
0.816837
0.845917
0.875751
0.906353
0.937735
0.969913
1.0029
1.03671
1.07135
1.10683
1.14317
1.18037
1.21845
1.25741
1.29726
1.33801
1.37965
1.42218
1.46562
1.50995
1.55518
1.60128
1.64827
1.69611
1.74481
1.79434
1.84468
1.89581
1.94771
2.00035
2.05369
2.1077
2.16235
2.2176
2.27341
2.32972
2.3865
2.4437
2.50125
2.55912
2.61723
2.67554
2.73399
2.79251
2.85104
2.90951
2.96785
3.02601
3.0839
3.14145
3.19859
3.25526
3.31137
3.36686
3.42164
3.47566
3.52883
3.58108
3.63233
3.68251
3.73153
3.77933
3.82583
3.87094
3.9146
3.95672
3.99723
4.03606
4.07312
4.10834
4.14165
4.17298
4.20225
4.2294
4.25436
4.27708
4.29749
4.31556
4.33122
4.34445
4.35521
4.36348
4.36923
4.37238
4.37305
4.3712
4.36681
4.35989
4.35051
4.33873
4.32459
4.30818
4.28957
4.26885
4.24612
4.22148
4.19505
4.16694
4.13728
4.1062
4.07384
4.04032
4.00579
3.97038
3.93425
3.89751
3.86031
3.82279
3.78506
3.74726
3.70951
3.67192
3.63461
3.59767
3.56121
3.52532
3.49008
3.45557
3.42185
3.38898
3.357
3.32593
3.2958
3.26661
3.23836
3.21103
3.1846
3.15908
3.1345
3.11094
3.08854
3.06749
3.04694
3.02564
0.0451757
0.0826356
0.10419
0.119444
0.131872
0.14277
0.152771
0.162257
0.171478
0.180618
0.189811
0.199164
0.208757
0.218655
0.228907
0.239549
0.250612
0.262119
0.274088
0.286536
0.299476
0.31292
0.326878
0.34136
0.356377
0.371936
0.388046
0.404714
0.421949
0.439759
0.458153
0.477139
0.496727
0.516925
0.537745
0.559196
0.58129
0.604038
0.627452
0.651545
0.676332
0.701826
0.728044
0.755001
0.782713
0.811198
0.84047
0.870549
0.901451
0.933192
0.96579
0.999261
1.03362
1.06889
1.10507
1.14219
1.18026
1.21929
1.25929
1.30028
1.34225
1.38522
1.4292
1.47418
1.52016
1.56715
1.61513
1.66411
1.71407
1.765
1.81689
1.8697
1.92343
1.97805
2.03353
2.08983
2.14692
2.20477
2.26333
2.32255
2.3824
2.44281
2.50374
2.56513
2.62692
2.68904
2.75145
2.81406
2.87681
2.93964
3.00247
3.06523
3.12784
3.19023
3.25232
3.31403
3.37528
3.436
3.4961
3.55552
3.61416
3.67196
3.72883
3.78469
3.83948
3.8931
3.94548
3.99654
4.0462
4.09438
4.14101
4.18601
4.2293
4.2708
4.31044
4.34814
4.38382
4.41741
4.44884
4.47804
4.50495
4.52948
4.5516
4.57124
4.58836
4.6029
4.61483
4.62412
4.63074
4.63465
4.63589
4.63444
4.63024
4.62331
4.61372
4.60152
4.58677
4.56955
4.54991
4.52796
4.50377
4.47747
4.44914
4.41892
4.38693
4.3533
4.31816
4.28165
4.24393
4.20512
4.16537
4.12483
4.08364
4.04193
3.99985
3.95753
3.91509
3.87267
3.83038
3.78835
3.74669
3.70549
3.66488
3.62493
3.58575
3.54742
3.51
3.47356
3.43815
3.40383
3.37062
3.33855
3.30764
3.27794
3.2495
3.22243
3.19684
3.1729
3.14976
3.12648
0.048487
0.0861035
0.108395
0.124239
0.137169
0.14852
0.158939
0.168808
0.178382
0.187842
0.197325
0.206938
0.216765
0.226871
0.237309
0.248119
0.259334
0.270981
0.28308
0.29565
0.308704
0.322256
0.336319
0.350906
0.366026
0.38169
0.397909
0.414693
0.432053
0.45
0.468545
0.4877
0.507476
0.527887
0.548946
0.570666
0.593061
0.616147
0.639938
0.664451
0.689704
0.715715
0.742502
0.770085
0.798485
0.827721
0.857813
0.888783
0.92065
0.953436
0.987161
1.02184
1.05751
1.09416
1.13184
1.17054
1.2103
1.25112
1.29301
1.336
1.38009
1.42528
1.47159
1.51902
1.56756
1.61722
1.668
1.71987
1.77284
1.82688
1.88199
1.93813
1.99528
2.05341
2.11249
2.17248
2.23335
2.29504
2.35751
2.42072
2.4846
2.54909
2.61415
2.6797
2.74567
2.812
2.87862
2.94545
3.01242
3.07944
3.14645
3.21336
3.28009
3.34655
3.41265
3.47833
3.54348
3.60803
3.6719
3.73499
3.79724
3.85855
3.91884
3.97804
4.03605
4.09281
4.14823
4.20223
4.25474
4.30567
4.35494
4.40248
4.44822
4.49208
4.53397
4.57384
4.61159
4.64716
4.68047
4.71146
4.74006
4.76619
4.7898
4.81082
4.82921
4.84492
4.8579
4.86811
4.87554
4.88014
4.88191
4.88085
4.87687
4.86991
4.86012
4.84755
4.83224
4.81425
4.79365
4.77053
4.74496
4.71706
4.68692
4.65465
4.62039
4.58427
4.54641
4.50696
4.46607
4.42387
4.38053
4.33618
4.29097
4.24505
4.19856
4.15165
4.10445
4.05711
4.00974
3.9625
3.9155
3.86886
3.82272
3.77719
3.73239
3.68842
3.64541
3.60344
3.56262
3.52302
3.48473
3.44782
3.41236
3.37842
3.34608
3.31546
3.28667
3.25983
3.23414
3.20893
0.0512395
0.0885447
0.111345
0.127626
0.140939
0.152643
0.163393
0.173573
0.183434
0.193157
0.202878
0.212701
0.22271
0.232972
0.24354
0.254457
0.265758
0.277471
0.289619
0.302223
0.3153
0.328865
0.342934
0.357519
0.372635
0.388295
0.404511
0.421298
0.438668
0.456637
0.475219
0.494429
0.514282
0.534794
0.555981
0.577861
0.600452
0.623771
0.647838
0.672673
0.698298
0.724735
0.752008
0.780139
0.809154
0.839076
0.86993
0.901741
0.934532
0.968329
1.00315
1.03903
1.07598
1.11404
1.1532
1.19351
1.23498
1.27762
1.32145
1.36648
1.41273
1.46021
1.50891
1.55885
1.61003
1.66243
1.71606
1.7709
1.82695
1.88417
1.94255
2.00207
2.06269
2.12438
2.1871
2.25081
2.31545
2.38099
2.44737
2.51452
2.58239
2.65091
2.72001
2.78963
2.85967
2.93008
3.00077
3.07165
3.14264
3.21366
3.28463
3.35545
3.42603
3.49629
3.56612
3.63545
3.70419
3.77223
3.83951
3.90592
3.97138
4.03581
4.09912
4.16124
4.22207
4.28154
4.33956
4.39606
4.45097
4.50419
4.55567
4.60531
4.65306
4.69884
4.74256
4.78417
4.82359
4.86075
4.89557
4.92799
4.95794
4.98535
5.01016
5.03231
5.05174
5.0684
5.08224
5.09323
5.10133
5.10652
5.10878
5.10806
5.10428
5.09729
5.08732
5.07439
5.05856
5.03988
5.01839
4.99419
4.96734
4.93793
4.90608
4.87189
4.83547
4.79696
4.75649
4.7142
4.67024
4.62475
4.57789
4.5298
4.48064
4.43056
4.37971
4.32824
4.2763
4.22403
4.17159
4.11912
4.06675
4.01465
3.96294
3.91177
3.86129
3.81165
3.76298
3.71542
3.66912
3.6242
3.58079
3.539
3.49896
3.46076
3.42452
3.39037
3.35839
3.32871
3.30055
3.27352
0.0534465
0.0900631
0.113163
0.129741
0.143323
0.15528
0.166272
0.176681
0.186758
0.196679
0.206577
0.216553
0.226691
0.237054
0.247698
0.258666
0.269995
0.281713
0.293847
0.306418
0.319443
0.332942
0.346933
0.361432
0.376457
0.392026
0.408154
0.424858
0.442157
0.460067
0.478607
0.497796
0.517653
0.538198
0.55945
0.58143
0.60416
0.627659
0.651951
0.677062
0.70302
0.729854
0.757591
0.786259
0.815887
0.846504
0.878138
0.910817
0.94457
0.979426
1.01541
1.05255
1.09088
1.13041
1.17117
1.21319
1.25647
1.30106
1.34695
1.39416
1.44271
1.49261
1.54385
1.59644
1.65038
1.70566
1.76227
1.8202
1.87943
1.93994
2.00169
2.06466
2.1288
2.19409
2.26047
2.32789
2.3963
2.46564
2.53585
2.60686
2.67861
2.75101
2.824
2.89748
2.97139
3.04563
3.12012
3.19476
3.26947
3.34415
3.41871
3.49306
3.56709
3.64072
3.71384
3.78637
3.85821
3.92926
3.99943
4.06863
4.13678
4.20379
4.26957
4.33405
4.39712
4.45873
4.51879
4.57721
4.63393
4.68888
4.74198
4.79316
4.84236
4.88951
4.93453
4.97736
5.01794
5.05619
5.09205
5.12545
5.15634
5.18463
5.21028
5.23321
5.25338
5.27072
5.2852
5.29677
5.30538
5.31102
5.31367
5.31323
5.30964
5.30259
5.29244
5.2792
5.26291
5.2436
5.22132
5.19614
5.16813
5.13737
5.10395
5.06798
5.02957
4.98884
4.94592
4.90096
4.85409
4.80547
4.75525
4.70359
4.65062
4.59652
4.54144
4.48554
4.42897
4.3719
4.31448
4.25687
4.19923
4.14172
4.08451
4.02777
3.97167
3.91638
3.8621
3.80899
3.75724
3.70703
3.65853
3.6119
3.56731
3.52489
3.48479
3.44715
3.41206
3.37962
3.34912
3.32044
0.0551292
0.0907498
0.113972
0.130722
0.144465
0.156571
0.167713
0.178269
0.188484
0.198533
0.208542
0.218612
0.228822
0.239234
0.249902
0.260868
0.27217
0.28384
0.295907
0.308396
0.321316
0.334691
0.348545
0.362901
0.37778
0.393204
0.409193
0.42577
0.442954
0.460769
0.479238
0.498383
0.518229
0.538798
0.560113
0.582199
0.605081
0.62878
0.653315
0.67873
0.705065
0.732352
0.760624
0.789914
0.820256
0.851682
0.884225
0.917916
0.952788
0.988873
1.0262
1.0648
1.10471
1.14594
1.18852
1.23248
1.27783
1.3246
1.37281
1.42245
1.47355
1.5261
1.58012
1.63559
1.69251
1.75087
1.81065
1.87184
1.9344
1.9983
2.06351
2.13
2.19771
2.2666
2.33661
2.40768
2.47976
2.55277
2.62665
2.70132
2.77671
2.85272
2.92928
3.0063
3.08369
3.16136
3.2392
3.31714
3.39506
3.47287
3.55047
3.62777
3.70465
3.78103
3.8568
3.93187
4.00613
4.0795
4.15187
4.22316
4.29328
4.36214
4.42966
4.49576
4.56035
4.62336
4.68471
4.74433
4.80215
4.8581
4.91213
4.96415
5.01412
5.06196
5.10763
5.15106
5.19218
5.23095
5.26729
5.30116
5.33247
5.36119
5.38724
5.41056
5.43111
5.44883
5.46366
5.47557
5.48449
5.49042
5.49336
5.49313
5.48969
5.48258
5.47226
5.45875
5.44206
5.42222
5.39926
5.37325
5.34424
5.3123
5.27751
5.23996
5.19977
5.15704
5.11191
5.06451
5.01498
4.96347
4.91013
4.85512
4.79859
4.7407
4.68162
4.6215
4.56052
4.49885
4.43665
4.37409
4.31136
4.24863
4.18609
4.12394
4.06237
4.0016
3.94183
3.88331
3.82624
3.77087
3.71739
3.66603
3.61699
3.57045
3.52654
3.48543
3.44725
3.41214
3.37941
3.3493
0.0562957
0.0906694
0.11385
0.130646
0.144446
0.156613
0.167827
0.178455
0.188739
0.198847
0.208905
0.219006
0.229228
0.239632
0.250268
0.261182
0.272411
0.283989
0.29595
0.308329
0.321124
0.334367
0.348084
0.362302
0.377047
0.392342
0.408214
0.424687
0.441787
0.459542
0.477978
0.497122
0.517004
0.537653
0.559096
0.581363
0.604486
0.628501
0.653412
0.679292
0.706178
0.734112
0.763134
0.793284
0.824603
0.857123
0.890878
0.925903
0.962234
0.999906
1.03895
1.07941
1.12129
1.16463
1.20946
1.25578
1.30362
1.353
1.40392
1.4564
1.51043
1.56602
1.62316
1.68183
1.74203
1.80373
1.8669
1.93152
1.99755
2.06496
2.13369
2.20369
2.27492
2.34731
2.42081
2.49534
2.57084
2.64722
2.72442
2.80235
2.88092
2.96005
3.03964
3.11961
3.19986
3.28029
3.3608
3.44129
3.52166
3.6018
3.68163
3.76103
3.83991
3.91816
3.99568
4.07237
4.14814
4.2229
4.29654
4.36898
4.44013
4.50991
4.57823
4.64502
4.71021
4.77371
4.83546
4.89539
4.95343
5.00953
5.06364
5.11568
5.16562
5.2134
5.25897
5.30227
5.34325
5.38187
5.41807
5.4518
5.483
5.51161
5.53758
5.56086
5.5814
5.59914
5.61403
5.626
5.63503
5.64108
5.64419
5.6441
5.64079
5.63361
5.62317
5.60945
5.59246
5.57221
5.54874
5.52208
5.49227
5.45937
5.42346
5.3846
5.3429
5.29847
5.25142
5.20189
5.15
5.09592
5.03978
4.98174
4.92196
4.8606
4.79783
4.73382
4.66873
4.60276
4.53608
4.46887
4.40134
4.33367
4.26607
4.19877
4.13199
4.06598
4.00098
3.93727
3.87508
3.81461
3.75621
3.70016
3.64671
3.59609
3.54851
3.50426
3.46334
3.42588
3.39123
3.36001
0.0571328
0.0901708
0.113148
0.129891
0.143661
0.15581
0.167
0.177606
0.187868
0.197955
0.207986
0.218056
0.228236
0.238587
0.249158
0.259993
0.271128
0.282598
0.29443
0.30665
0.31928
0.332355
0.34591
0.359974
0.37458
0.38976
0.405545
0.421968
0.439061
0.456859
0.475396
0.494717
0.514858
0.535845
0.557704
0.580475
0.604191
0.62888
0.654558
0.681321
0.709224
0.738312
0.768628
0.800212
0.833098
0.867329
0.90294
0.93997
0.978452
1.01843
1.05994
1.103
1.14764
1.19387
1.2417
1.29115
1.34222
1.39493
1.44927
1.50524
1.56283
1.62202
1.6828
1.74514
1.80901
1.87438
1.94122
2.00947
2.07909
2.15003
2.22224
2.29565
2.3702
2.44583
2.52246
2.60002
2.67844
2.75763
2.83751
2.918
2.999
3.08042
3.16218
3.24418
3.32631
3.40849
3.49061
3.57258
3.65428
3.73562
3.8165
3.89682
3.97648
4.05538
4.13343
4.21052
4.28657
4.36148
4.43516
4.50753
4.5785
4.648
4.71594
4.78227
4.8469
4.90977
4.97081
5.02996
5.08717
5.14239
5.19557
5.24667
5.29565
5.34246
5.38706
5.4294
5.46946
5.50718
5.54253
5.57545
5.6059
5.63383
5.65919
5.68195
5.70204
5.71942
5.73402
5.74578
5.75467
5.76066
5.76382
5.7638
5.76059
5.75337
5.74284
5.72899
5.7118
5.6913
5.66748
5.64036
5.60998
5.57638
5.5396
5.49972
5.45681
5.41098
5.36233
5.31099
5.25709
5.20077
5.14218
5.08146
5.01878
4.9543
4.88819
4.82063
4.75178
4.68185
4.61102
4.5395
4.46749
4.39521
4.32281
4.25057
4.17877
4.10768
4.03761
3.96887
3.9018
3.83679
3.77403
3.71384
3.65652
3.60234
3.55161
3.50438
3.46085
3.42119
3.3848
3.35274
0.0575737
0.08907
0.111655
0.128217
0.141858
0.153898
0.164987
0.175501
0.18568
0.195686
0.205639
0.215626
0.225719
0.235975
0.246444
0.257168
0.268188
0.279539
0.291256
0.303376
0.31594
0.32898
0.342534
0.356637
0.371327
0.386643
0.402629
0.419335
0.436791
0.455033
0.474106
0.494056
0.514919
0.536665
0.55939
0.58316
0.608033
0.634076
0.661344
0.689887
0.719758
0.751004
0.783671
0.817798
0.85342
0.890573
0.929288
0.969593
1.01151
1.05507
1.10028
1.14716
1.1957
1.24592
1.2978
1.35136
1.40657
1.46343
1.52192
1.58201
1.64367
1.70688