/*--------------------------------*- C++ -*----------------------------------*\
| =========                 |                                                 |
| \\      /  F ield         | OpenFOAM: The Open Source CFD Toolbox           |
|  \\    /   O peration     | Version:  v1712                                 |
|   \\  /    A nd           | Web:      www.OpenFOAM.com                      |
|    \\/     M anipulation  |                                                 |
\*---------------------------------------------------------------------------*/
FoamFile
{
    version     2.0;
    format      ascii;
    class       volScalarField;
    location    "200";
    object      nut;
}
// * * * * * * * * * * * * * * * * * * * * * * * * * * * * * * * * * * * * * //

dimensions      [0 2 -1 0 0 0 0];


internalField   nonuniform List<scalar> 
12225
(
2.70743e-05
3.55746e-05
4.0523e-05
4.31923e-05
4.44515e-05
4.49642e-05
4.49108e-05
4.48716e-05
4.45032e-05
4.41848e-05
4.38515e-05
4.35233e-05
4.32275e-05
4.29455e-05
4.27123e-05
4.24746e-05
4.23161e-05
4.20882e-05
0.000212993
8.46414e-05
5.59084e-05
4.40572e-05
3.83763e-05
3.53555e-05
3.38467e-05
3.30817e-05
3.28582e-05
3.28697e-05
3.32198e-05
3.35976e-05
3.42354e-05
3.47904e-05
3.55939e-05
3.62158e-05
3.7141e-05
3.7647e-05
0.000656975
0.000306544
0.000194002
0.000142115
0.000113221
9.45e-05
8.20238e-05
7.3316e-05
6.68026e-05
6.19619e-05
5.80439e-05
5.51126e-05
5.25345e-05
5.07157e-05
4.88928e-05
4.78632e-05
4.63257e-05
4.53962e-05
0.000862999
0.000609449
0.000451596
0.000350879
0.000289282
0.000246512
0.000216675
0.000194304
0.000177762
0.000164296
0.000154048
0.000145069
0.000138202
0.00013173
0.000126897
0.000121885
0.000118154
0.000113796
0.000877433
0.000776402
0.000690831
0.000591968
0.000517302
0.000458109
0.000413473
0.000377238
0.000349672
0.000325971
0.000307904
0.000291309
0.000278926
0.000266601
0.000257903
0.00024819
0.000242263
0.000233342
0.000858412
0.00083529
0.000807272
0.000753114
0.000699376
0.000648255
0.000604831
0.000565869
0.000534208
0.000505365
0.000482498
0.000460729
0.000444091
0.000427091
0.000414984
0.000401106
0.000392711
0.000379969
0.000854258
0.000849542
0.00084071
0.000823039
0.000798597
0.000768468
0.00073918
0.000709554
0.000683359
0.000657726
0.000636211
0.000614802
0.000597713
0.000579796
0.000566544
0.000551213
0.000541475
0.000526813
0.000852389
0.000851592
0.000849792
0.000844527
0.000835946
0.00082452
0.000810177
0.000793465
0.000777244
0.000760015
0.000744563
0.000728291
0.000714573
0.000699772
0.000688174
0.000674778
0.000665557
0.000652164
0.000851903
0.00085148
0.000851079
0.000849881
0.000847545
0.000843617
0.000838592
0.000831272
0.000823647
0.000814991
0.0008063
0.000796552
0.000787798
0.000778072
0.000769848
0.000760493
0.00075327
0.000743478
0.000851815
0.000851374
0.000851074
0.000850609
0.000850035
0.000848809
0.000847331
0.000844858
0.000841998
0.000838304
0.000834503
0.000829863
0.000825424
0.000820274
0.000815571
0.000810272
0.000805603
0.000799746
0.000851799
0.000851357
0.000851021
0.000850624
0.000850325
0.000849824
0.000849338
0.000848518
0.000847605
0.000846261
0.000844873
0.000843009
0.000841201
0.000838883
0.000836819
0.000834104
0.000832045
0.000828845
0.000851792
0.000851359
0.000851001
0.000850611
0.000850306
0.000849938
0.000849631
0.00084921
0.000848815
0.000848234
0.000847676
0.000846876
0.000846139
0.000845093
0.000844214
0.000842916
0.000841977
0.000840426
0.000851787
0.000851362
0.000850989
0.000850608
0.00085028
0.000849936
0.000849645
0.000849319
0.000849041
0.000848698
0.000848399
0.000848002
0.000847659
0.00084718
0.000846787
0.000846212
0.000845772
0.000845101
0.000851783
0.000851364
0.00085098
0.000850605
0.000850263
0.000849926
0.000849622
0.000849316
0.000849043
0.000848759
0.000848507
0.000848233
0.000847991
0.000847715
0.000847473
0.000847186
0.000846937
0.000846636
0.000851781
0.000851364
0.000850974
0.0008506
0.000850251
0.000849916
0.000849603
0.0008493
0.000849018
0.000848744
0.000848489
0.000848238
0.000848005
0.000847773
0.000847557
0.000847341
0.000847137
0.000846933
0.00085178
0.000851363
0.00085097
0.000850596
0.000850243
0.000849907
0.000849589
0.000849286
0.000848999
0.000848724
0.000848464
0.000848214
0.000847977
0.000847749
0.000847532
0.000847323
0.000847124
0.000846932
0.000851779
0.000851362
0.000850967
0.000850592
0.000850236
0.000849899
0.000849579
0.000849274
0.000848984
0.000848707
0.000848444
0.000848192
0.000847952
0.000847722
0.000847503
0.000847292
0.000847091
0.000846898
0.000851779
0.000851362
0.000850966
0.00085059
0.000850233
0.000849894
0.000849572
0.000849266
0.000848974
0.000848696
0.00084843
0.000848177
0.000847935
0.000847703
0.000847482
0.00084727
0.000847066
0.000846872
0.000851779
0.000851362
0.000850965
0.000850589
0.000850232
0.000849892
0.00084957
0.000849263
0.00084897
0.000848691
0.000848425
0.00084817
0.000847927
0.000847694
0.000847472
0.000847258
0.000847054
0.000846859
0.000851779
0.000851363
0.000850966
0.000850591
0.000850234
0.000849895
0.000849573
0.000849266
0.000848974
0.000848695
0.000848428
0.000848174
0.00084793
0.000847697
0.000847473
0.000847259
0.000847052
0.000846855
0.000851779
0.000851364
0.000850968
0.000850595
0.000850238
0.000849902
0.000849579
0.000849274
0.000848979
0.0008487
0.000848427
0.000848168
0.000847911
0.000847667
0.00084742
0.000847187
0.000846947
0.000846723
0.000851778
0.000851368
0.000850969
0.000850603
0.000850243
0.000849911
0.000849573
0.000849254
0.000848916
0.000848587
0.000848223
0.000847865
0.000847456
0.00084706
0.000846596
0.00084616
0.000845637
0.00084517
0.000851779
0.000851382
0.000850972
0.000850624
0.000850209
0.000849789
0.000849234
0.000848616
0.000847803
0.000846896
0.000845768
0.00084456
0.000843125
0.000841664
0.000839958
0.000838332
0.000836384
0.000834697
0.000851855
0.000851468
0.000850931
0.000850395
0.000849126
0.000847458
0.000844947
0.00084194
0.000838072
0.000833847
0.00082896
0.000823928
0.000818446
0.000813017
0.000807261
0.000801722
0.000795837
0.000790772
0.000852785
0.000851382
0.000849188
0.000845095
0.000836885
0.000827817
0.000815748
0.000802822
0.000788372
0.000774367
0.00075966
0.000746074
0.000732114
0.000719678
0.000706812
0.000695834
0.000684077
0.000674683
0.000858211
0.000842301
0.000828961
0.000803013
0.000769258
0.000735474
0.000700802
0.000669703
0.000639496
0.00061359
0.000588609
0.000567739
0.000547309
0.00053065
0.000513856
0.000500598
0.000486553
0.000476051
0.000864338
0.000785615
0.000712709
0.000628299
0.000558283
0.000503081
0.000455746
0.000418865
0.000386621
0.000361589
0.000338759
0.000321222
0.000304409
0.000291764
0.000278903
0.000269538
0.000259358
0.000252291
0.000775956
0.000540064
0.00039794
0.000312963
0.000258156
0.000219634
0.000190505
0.000169563
0.000152551
0.00013999
0.000129093
0.000121014
0.000113524
0.000108072
0.00010263
9.8807e-05
9.46827e-05
9.19095e-05
0.000323582
0.000164841
0.000111417
8.60759e-05
7.08264e-05
6.13545e-05
5.50183e-05
5.08855e-05
4.79531e-05
4.60097e-05
4.45905e-05
4.36882e-05
4.30395e-05
4.26951e-05
4.24556e-05
4.24397e-05
4.24365e-05
4.26233e-05
3.26574e-05
3.90519e-05
4.3892e-05
4.69716e-05
4.93654e-05
5.11698e-05
5.25343e-05
5.34594e-05
5.4114e-05
5.44633e-05
5.46905e-05
5.46972e-05
5.4654e-05
5.45497e-05
5.43768e-05
5.41694e-05
5.39443e-05
5.37076e-05
3.85166e-06
1.05267e-05
1.24992e-05
1.39929e-05
1.50942e-05
1.59109e-05
1.65438e-05
1.71073e-05
1.75975e-05
1.80532e-05
1.84895e-05
1.89406e-05
1.94162e-05
1.99731e-05
2.06271e-05
2.13598e-05
2.2119e-05
2.2913e-05
2.3721e-05
2.4566e-05
2.54301e-05
2.6335e-05
2.72603e-05
2.8224e-05
2.92054e-05
3.02204e-05
3.12508e-05
3.2308e-05
3.33668e-05
3.44392e-05
3.55082e-05
3.65861e-05
3.76578e-05
3.87348e-05
3.98037e-05
4.08762e-05
4.19395e-05
4.3007e-05
4.40695e-05
4.51423e-05
4.62197e-05
4.73199e-05
4.84332e-05
4.9542e-05
5.0646e-05
5.17529e-05
5.28537e-05
5.39582e-05
5.50572e-05
5.61603e-05
5.72583e-05
5.83603e-05
5.94576e-05
6.05586e-05
6.16553e-05
6.27556e-05
6.38516e-05
6.49506e-05
6.60453e-05
6.71427e-05
6.82355e-05
6.933e-05
7.04197e-05
7.15105e-05
7.25959e-05
7.36817e-05
7.47613e-05
7.58402e-05
7.69122e-05
7.79826e-05
7.90452e-05
8.01051e-05
8.11562e-05
8.22035e-05
8.32411e-05
8.42736e-05
8.52952e-05
8.63103e-05
8.73135e-05
8.83092e-05
8.92918e-05
9.02654e-05
9.12249e-05
9.21741e-05
9.31078e-05
9.40295e-05
9.49344e-05
9.58253e-05
9.66985e-05
9.75558e-05
9.83955e-05
9.92156e-05
0.000100015
0.000100792
0.000101545
0.000102273
0.000102975
0.000103651
0.000104306
0.000104945
0.000105558
0.000106148
0.000106713
0.000107253
0.000107768
0.000108256
0.000108717
0.000109151
0.000109557
0.000109934
0.000110282
0.000110599
0.000110886
0.000111142
0.000111365
0.000111557
0.000111715
0.000111841
0.000111933
0.00011199
0.000112013
0.000112001
0.000111956
0.000111879
0.000111775
0.000111605
0.000111422
0.00011119
0.000110934
0.000110656
0.000110331
0.000109976
0.000109588
0.000109167
0.000108717
0.000108234
0.000107724
0.000107184
0.000106615
0.000106018
0.000105398
0.000104756
0.000104094
0.000103415
0.000102719
0.00010201
0.000101289
0.000100558
9.98193e-05
9.90759e-05
9.83277e-05
9.75797e-05
9.68322e-05
9.60895e-05
9.53518e-05
9.46236e-05
9.39052e-05
9.32008e-05
9.25108e-05
9.18389e-05
9.11856e-05
9.05535e-05
8.99441e-05
8.93613e-05
8.88041e-05
8.82763e-05
8.78037e-05
8.76844e-05
8.76708e-05
8.74337e-05
8.72439e-05
8.70856e-05
8.69524e-05
8.68449e-05
8.6775e-05
8.67513e-05
8.66716e-05
8.65476e-05
8.63247e-05
8.50282e-05
6.06892e-06
2.92099e-05
6.23978e-05
8.81415e-05
0.000105413
0.000116381
0.000122896
0.000126607
0.000129233
0.000131615
0.000134054
0.000136566
0.000139035
0.000141319
0.000143394
0.000145374
0.000147347
0.000149384
0.000151537
0.000153866
0.000156419
0.000159244
0.000162368
0.000165815
0.000169588
0.000173694
0.00017813
0.000182909
0.000188009
0.000193385
0.000199003
0.00020486
0.000210971
0.000217335
0.000223928
0.000230739
0.00023771
0.000244782
0.000251926
0.000259123
0.000266356
0.000273632
0.000280982
0.000288392
0.00029587
0.000303419
0.00031104
0.000318737
0.000326509
0.000334362
0.000342294
0.000350311
0.000358412
0.000366603
0.000374883
0.000383257
0.000391726
0.000400292
0.000408957
0.000417723
0.00042659
0.000435561
0.000444634
0.000453812
0.000463094
0.00047248
0.000481969
0.000491561
0.000501253
0.000511046
0.000520935
0.000530921
0.000540999
0.000551168
0.000561424
0.000571764
0.000582182
0.000592677
0.000603243
0.000613877
0.000624574
0.000635332
0.000646143
0.000657006
0.000667913
0.000678862
0.000689847
0.000700865
0.000711913
0.000722987
0.000734085
0.000745195
0.000756306
0.000767394
0.000778424
0.000789333
0.000800005
0.000810256
0.000819771
0.000829071
0.000838264
0.000847342
0.000856294
0.000865113
0.000873787
0.000882307
0.000890661
0.000898837
0.000906825
0.000914611
0.000922185
0.000929532
0.000936642
0.000943501
0.000950097
0.000956418
0.00096245
0.000968183
0.000973605
0.000978702
0.000983466
0.000987888
0.000991963
0.000995692
0.000999092
0.00100222
0.00100488
0.00100685
0.00100858
0.00101025
0.00101137
0.0010121
0.00101246
0.00101244
0.00101205
0.0010113
0.0010102
0.00100876
0.001007
0.00100492
0.00100253
0.000999871
0.000996947
0.000993782
0.000990396
0.000986811
0.000983048
0.000979133
0.000975086
0.000970935
0.000966704
0.000962421
0.000958111
0.0009538
0.000949512
0.000945277
0.000941114
0.000937054
0.000933116
0.000929328
0.000925706
0.000922272
0.000919039
0.000916026
0.000913232
0.000910659
0.000908286
0.000905982
0.0009019
0.000897465
0.000893125
0.000888798
0.00088452
0.000880154
0.000875699
0.000871165
0.000866121
0.000860019
0.000851311
0.000827745
7.5749e-06
4.62947e-05
9.93683e-05
0.000143726
0.00017706
0.000201121
0.000218137
0.000230112
0.000238809
0.000245545
0.000251189
0.000256257
0.000261031
0.00026567
0.000270296
0.000275026
0.000279957
0.000285171
0.000290738
0.000296722
0.000303177
0.000310149
0.00031767
0.000325754
0.0003344
0.000343585
0.000353265
0.000363521
0.000374447
0.00038614
0.00039837
0.000411
0.000423987
0.000437297
0.000450889
0.000464725
0.000478767
0.000492986
0.000507366
0.000521894
0.000536567
0.000551386
0.000566353
0.000581454
0.00059668
0.000612051
0.000627573
0.000643248
0.000659079
0.00067507
0.000691224
0.000707545
0.000724035
0.0007407
0.000757541
0.000774563
0.000791768
0.000809159
0.000826737
0.000844504
0.000862458
0.000880601
0.000898932
0.00091745
0.000936153
0.000955039
0.000974104
0.000993346
0.00101276
0.00103234
0.00105208
0.00107198
0.00109203
0.00111222
0.00113254
0.00115299
0.00117356
0.00119424
0.00121503
0.0012359
0.00125685
0.00127788
0.00129897
0.00132011
0.00134129
0.0013625
0.00138373
0.00140496
0.00142618
0.00144738
0.00146855
0.00148964
0.00151064
0.0015315
0.00155216
0.00157254
0.00159256
0.00161212
0.00163122
0.00165005
0.00166866
0.00168703
0.00170513
0.00172294
0.00174045
0.00175764
0.00177447
0.00179093
0.001807
0.00182265
0.00183785
0.00185259
0.00186683
0.00188056
0.00189375
0.00190637
0.0019184
0.00192981
0.00194059
0.00195071
0.00196015
0.0019689
0.00197693
0.00198425
0.00199084
0.00199685
0.00200235
0.0020063
0.0020095
0.00201251
0.00201457
0.00201582
0.00201629
0.002016
0.00201496
0.00201318
0.00201068
0.00200749
0.00200363
0.00199912
0.00199401
0.00198832
0.00198209
0.00197537
0.00196819
0.00196061
0.00195266
0.0019444
0.00193586
0.00192711
0.00191818
0.00190915
0.00190004
0.00189093
0.00188185
0.00187286
0.00186401
0.00185534
0.0018469
0.00183873
0.00183087
0.00182336
0.00181622
0.00180948
0.00180312
0.00179716
0.0017915
0.00178583
0.00177881
0.00177147
0.00176389
0.00175632
0.0017489
0.00174108
0.00173342
0.00172548
0.00171647
0.00170542
0.00168878
0.00164979
8.59168e-06
6.25723e-05
0.000131323
0.000188702
0.000233191
0.000266417
0.000290908
0.000308977
0.000322577
0.000333261
0.000342185
0.000350162
0.000357734
0.000365254
0.000372952
0.000380987
0.000389471
0.000398487
0.000408102
0.00041837
0.000429334
0.000441028
0.000453472
0.000466679
0.000480656
0.000495409
0.000510962
0.000527204
0.000543988
0.000561147
0.000578718
0.000596726
0.000615141
0.000633924
0.000653034
0.000672429
0.000692066
0.000711919
0.000732007
0.00075233
0.000772889
0.000793695
0.00081477
0.000836161
0.000857759
0.000879566
0.000901584
0.000923818
0.000946271
0.000968948
0.000991853
0.00101499
0.00103836
0.00106196
0.00108581
0.00110991
0.00113425
0.00115885
0.0011837
0.0012088
0.00123415
0.00125976
0.00128561
0.00131171
0.00133804
0.00136462
0.00139142
0.00141845
0.0014457
0.00147315
0.00150081
0.00152866
0.00155669
0.00158488
0.00161324
0.00164175
0.00167039
0.00169915
0.00172801
0.00175697
0.00178601
0.00181511
0.00184426
0.00187345
0.00190264
0.00193184
0.00196101
0.00199014
0.0020192
0.00204818
0.00207705
0.00210577
0.0021343
0.00216261
0.00219063
0.00221831
0.00224558
0.00227241
0.00229885
0.00232497
0.00235076
0.0023762
0.00240128
0.00242595
0.00245019
0.00247398
0.00249729
0.00252008
0.00254233
0.002564
0.00258506
0.00260549
0.00262524
0.00264429
0.00266261
0.00268015
0.00269689
0.0027128
0.00272784
0.00274199
0.00275522
0.0027675
0.00277882
0.00278915
0.00279849
0.00280694
0.00281472
0.00282082
0.00282552
0.0028298
0.00283289
0.00283487
0.00283576
0.00283558
0.00283434
0.00283206
0.00282878
0.00282451
0.0028193
0.00281318
0.00280618
0.00279837
0.00278979
0.00278049
0.00277054
0.00275999
0.0027489
0.00273735
0.00272539
0.0027131
0.00270054
0.0026878
0.00267493
0.00266202
0.00264913
0.00263633
0.00262369
0.00261128
0.00259917
0.00258741
0.00257605
0.00256515
0.00255475
0.00254487
0.00253552
0.00252669
0.0025183
0.00251006
0.00250123
0.00249217
0.00248294
0.00247378
0.00246472
0.00245555
0.00244628
0.00243653
0.0024257
0.00241251
0.00239247
0.00235101
9.31434e-06
7.65516e-05
0.000158987
0.000227416
0.000281314
0.000322459
0.000353595
0.000377261
0.00039559
0.000410311
0.000422767
0.000433957
0.000444592
0.000455159
0.00046598
0.000477269
0.000489162
0.000501752
0.0005151
0.000529247
0.00054422
0.000560031
0.000576682
0.000594163
0.000612451
0.000631516
0.000651309
0.000671756
0.000692778
0.000714311
0.000736332
0.00075882
0.000781743
0.000805072
0.000828776
0.000852835
0.000877239
0.000901978
0.00092701
0.000952317
0.000977892
0.00100372
0.00102979
0.00105607
0.00108258
0.00110936
0.00113639
0.0011637
0.00119128
0.00121913
0.00124727
0.00127569
0.00130439
0.00133338
0.00136264
0.00139219
0.00142204
0.00145219
0.00148264
0.00151339
0.00154442
0.00157575
0.00160736
0.00163925
0.00167142
0.00170385
0.00173653
0.00176946
0.00180263
0.00183603
0.00186964
0.00190345
0.00193745
0.00197163
0.00200596
0.00204044
0.00207504
0.00210975
0.00214456
0.00217944
0.00221437
0.00224934
0.00228433
0.00231932
0.00235428
0.0023892
0.00242405
0.0024588
0.00249344
0.00252792
0.00256224
0.00259634
0.0026302
0.00266378
0.00269703
0.00272994
0.00276246
0.0027946
0.00282635
0.00285773
0.00288871
0.00291928
0.00294941
0.00297906
0.0030082
0.00303681
0.00306485
0.00309229
0.0031191
0.00314523
0.00317066
0.00319535
0.00321926
0.00324235
0.00326459
0.00328594
0.00330636
0.00332582
0.00334427
0.00336168
0.00337802
0.00339326
0.00340737
0.00342033
0.00343212
0.00344275
0.0034526
0.00346086
0.00346736
0.00347297
0.00347734
0.00348038
0.00348211
0.00348254
0.00348168
0.00347956
0.00347622
0.00347167
0.00346595
0.00345912
0.00345121
0.00344229
0.0034324
0.00342161
0.00340999
0.00339762
0.00338455
0.00337087
0.00335667
0.00334201
0.00332699
0.0033117
0.00329621
0.00328062
0.00326502
0.00324949
0.00323411
0.00321897
0.00320415
0.00318972
0.00317576
0.00316232
0.00314946
0.00313723
0.00312564
0.0031147
0.00310434
0.00309436
0.00308435
0.00307436
0.00306439
0.00305443
0.00304459
0.0030347
0.00302468
0.00301421
0.00300276
0.00298907
0.0029692
0.00293096
9.85524e-06
8.85471e-05
0.000182554
0.000260843
0.000323139
0.000371687
0.000409213
0.000438399
0.000461511
0.000480406
0.000496561
0.000511107
0.000524881
0.000538474
0.000552292
0.000566603
0.00058158
0.000597328
0.00061391
0.000631361
0.000649694
0.000668906
0.000688983
0.000709899
0.000731618
0.000754097
0.000777284
0.000801123
0.000825559
0.000850547
0.000876052
0.000902043
0.00092849
0.000955364
0.000982639
0.00101029
0.00103831
0.00106666
0.00109533
0.00112431
0.00115358
0.00118314
0.00121298
0.00124308
0.00127347
0.00130415
0.00133513
0.00136641
0.00139799
0.00142988
0.00146208
0.00149459
0.00152742
0.00156058
0.00159406
0.00162787
0.001662
0.00169643
0.00173118
0.00176623
0.00180158
0.00183723
0.00187316
0.00190938
0.00194587
0.00198262
0.00201962
0.00205686
0.00209433
0.00213202
0.00216991
0.00220799
0.00224624
0.00228465
0.0023232
0.00236187
0.00240064
0.0024395
0.00247843
0.00251741
0.00255641
0.00259543
0.00263443
0.00267339
0.0027123
0.00275113
0.00278986
0.00282846
0.0028669
0.00290517
0.00294322
0.00298104
0.0030186
0.00305586
0.00309279
0.00312938
0.00316561
0.00320146
0.00323692
0.00327197
0.00330659
0.00334076
0.00337445
0.00340764
0.00344028
0.00347235
0.00350381
0.00353464
0.00356479
0.00359422
0.00362292
0.00365082
0.0036779
0.00370412
0.00372943
0.0037538
0.00377717
0.00379952
0.00382081
0.00384098
0.00386
0.00387784
0.00389446
0.00390984
0.00392393
0.00393672
0.00394859
0.00395897
0.0039675
0.0039747
0.00398063
0.0039851
0.00398808
0.00398959
0.00398964
0.00398827
0.00398548
0.00398133
0.00397584
0.00396905
0.00396102
0.00395181
0.00394146
0.00393005
0.00391766
0.00390434
0.0038902
0.0038753
0.00385974
0.00384362
0.00382701
0.00381003
0.00379277
0.00377533
0.00375781
0.0037403
0.00372291
0.00370573
0.00368886
0.00367239
0.0036564
0.00364097
0.00362617
0.00361206
0.00359867
0.00358603
0.0035741
0.00356275
0.00355176
0.00354105
0.00353059
0.00352035
0.00351029
0.00350031
0.00349031
0.00348001
0.00346898
0.0034561
0.00343811
0.00340618
1.04884e-05
9.64217e-05
0.000200468
0.000288205
0.000358648
0.000414519
0.000458441
0.000493223
0.000521239
0.000544448
0.000564429
0.000582415
0.000599339
0.000615881
0.000632521
0.000649586
0.000667285
0.000685749
0.000705053
0.000725233
0.000746299
0.000768242
0.000791042
0.000814666
0.000839077
0.000864228
0.000890074
0.000916567
0.000943662
0.000971317
0.000999499
0.00102817
0.00105731
0.00108689
0.00111688
0.00114726
0.00117801
0.00120911
0.00124055
0.00127231
0.00130438
0.00133676
0.00136944
0.00140243
0.00143572
0.00146932
0.00150323
0.00153746
0.001572
0.00160687
0.00164206
0.00167757
0.00171341
0.00174958
0.00178607
0.00182288
0.00186001
0.00189746
0.00193521
0.00197327
0.00201162
0.00205026
0.00208918
0.00212838
0.00216784
0.00220755
0.0022475
0.00228769
0.00232808
0.00236869
0.00240947
0.00245043
0.00249155
0.00253281
0.00257419
0.00261568
0.00265725
0.00269889
0.00274058
0.0027823
0.00282403
0.00286575
0.00290744
0.00294907
0.00299062
0.00303208
0.00307342
0.00311461
0.00315563
0.00319646
0.00323708
0.00327744
0.00331754
0.00335735
0.00339684
0.00343599
0.00347479
0.00351321
0.00355124
0.00358886
0.00362605
0.00366278
0.00369903
0.00373476
0.00376995
0.00380456
0.00383857
0.00387194
0.00390464
0.00393662
0.00396786
0.00399832
0.00402795
0.00405671
0.00408456
0.00411147
0.00413738
0.00416225
0.00418604
0.00420869
0.00423018
0.00425046
0.00426948
0.00428721
0.0043036
0.00431862
0.00433262
0.00434514
0.00435589
0.00436498
0.00437278
0.00437899
0.0043836
0.00438661
0.00438801
0.00438785
0.00438614
0.00438292
0.00437821
0.00437205
0.0043645
0.00435561
0.00434542
0.00433403
0.00432148
0.00430787
0.00429327
0.00427778
0.00426149
0.00424449
0.00422688
0.00420878
0.00419028
0.0041715
0.00415254
0.00413352
0.00411455
0.00409572
0.00407717
0.00405897
0.00404125
0.00402408
0.00400757
0.00399178
0.00397677
0.00396258
0.00394921
0.0039366
0.00392462
0.00391319
0.00390223
0.0038917
0.00388154
0.00387167
0.00386196
0.00385224
0.00384214
0.00383072
0.00381537
0.00378988
1.12409e-05
0.000100558
0.000212927
0.000309581
0.000387934
0.000451052
0.00050137
0.000541799
0.0005748
0.000602416
0.0006263
0.000647764
0.000667818
0.000687216
0.000706504
0.000726064
0.000746151
0.000766925
0.000788484
0.000810875
0.000834115
0.0008582
0.000883109
0.000908812
0.000935274
0.000962454
0.000990309
0.0010188
0.00104787
0.00107751
0.00110766
0.00113831
0.00116942
0.00120096
0.00123292
0.00126527
0.001298
0.00133108
0.00136451
0.00139827
0.00143234
0.00146673
0.00150143
0.00153644
0.00157176
0.0016074
0.00164334
0.0016796
0.00171618
0.00175307
0.00179029
0.00182782
0.00186567
0.00190383
0.00194231
0.0019811
0.0020202
0.0020596
0.00209929
0.00213927
0.00217954
0.00222008
0.00226089
0.00230195
0.00234327
0.00238482
0.0024266
0.0024686
0.00251079
0.00255318
0.00259574
0.00263846
0.00268132
0.00272432
0.00276742
0.00281062
0.0028539
0.00289724
0.00294062
0.00298402
0.00302742
0.00307081
0.00311417
0.00315746
0.00320068
0.0032438
0.0032868
0.00332965
0.00337234
0.00341485
0.00345714
0.00349921
0.00354102
0.00358255
0.00362379
0.00366471
0.00370529
0.00374552
0.00378538
0.00382484
0.00386389
0.00390249
0.00394063
0.00397828
0.00401541
0.00405198
0.00408798
0.00412337
0.00415811
0.00419217
0.00422552
0.00425812
0.00428992
0.0043209
0.00435099
0.00438017
0.00440838
0.00443558
0.00446171
0.00448674
0.00451061
0.00453328
0.00455469
0.00457481
0.00459359
0.00461097
0.00462723
0.00464201
0.00465514
0.00466645
0.0046764
0.00468468
0.00469126
0.00469611
0.00469925
0.00470069
0.00470047
0.00469861
0.00469512
0.00469005
0.00468343
0.00467532
0.00466576
0.00465483
0.00464259
0.00462913
0.00461452
0.00459886
0.00458223
0.00456475
0.00454651
0.00452763
0.00450822
0.00448839
0.00446827
0.00444797
0.00442762
0.00440733
0.00438722
0.00436742
0.00434805
0.0043292
0.004311
0.00429353
0.00427688
0.00426112
0.00424627
0.00423232
0.00421922
0.0042069
0.00419531
0.0041844
0.0041741
0.00416434
0.00415503
0.00414605
0.00413712
0.00412748
0.00411508
0.00409549
1.18959e-05
0.000102849
0.000221557
0.000325927
0.000411541
0.000481529
0.000538058
0.000584051
0.000622013
0.000654037
0.000681828
0.000706754
0.000729882
0.000752028
0.000773795
0.000795615
0.00081779
0.000840517
0.000863919
0.000888067
0.000912989
0.000938693
0.000965166
0.000992387
0.00102033
0.00104896
0.00107824
0.00110812
0.00113857
0.00116956
0.00120105
0.00123301
0.00126543
0.00129827
0.00133152
0.00136515
0.00139916
0.00143352
0.00146822
0.00150325
0.0015386
0.00157424
0.00161018
0.00164643
0.00168296
0.0017198
0.00175694
0.00179437
0.00183211
0.00187015
0.00190849
0.00194713
0.00198607
0.00202531
0.00206484
0.00210467
0.00214478
0.00218517
0.00222585
0.00226679
0.00230801
0.00234948
0.0023912
0.00243318
0.00247538
0.00251782
0.00256047
0.00260333
0.00264638
0.00268962
0.00273303
0.0027766
0.00282032
0.00286416
0.00290812
0.00295219
0.00299633
0.00304055
0.00308481
0.00312911
0.00317343
0.00321774
0.00326203
0.00330628
0.00335047
0.00339458
0.00343859
0.00348248
0.00352623
0.00356981
0.00361321
0.00365641
0.00369939
0.00374211
0.00378458
0.00382676
0.00386863
0.00391019
0.00395139
0.00399224
0.0040327
0.00407276
0.00411238
0.00415156
0.00419025
0.00422843
0.00426608
0.00430317
0.00433966
0.00437552
0.00441073
0.00444523
0.004479
0.00451199
0.00454417
0.00457548
0.00460587
0.00463531
0.00466374
0.00469111
0.00471736
0.00474244
0.00476631
0.0047889
0.00481017
0.00483005
0.00484876
0.00486595
0.0048816
0.00489547
0.00490783
0.00491848
0.00492733
0.00493434
0.00493954
0.00494293
0.00494455
0.0049444
0.0049425
0.00493888
0.00493357
0.0049266
0.00491804
0.00490793
0.00489635
0.00488337
0.00486907
0.00485353
0.00483687
0.00481917
0.00480054
0.0047811
0.00476097
0.00474026
0.00471911
0.00469764
0.00467598
0.00465427
0.00463264
0.00461122
0.00459015
0.00456956
0.00454958
0.00453032
0.0045119
0.00449441
0.00447792
0.00446246
0.00444804
0.00443462
0.00442219
0.00441071
0.00440013
0.0043904
0.00438147
0.00437327
0.00436558
0.00435783
0.0043484
0.00433422
1.24466e-05
0.000103835
0.000227128
0.000337874
0.000430034
0.000506173
0.000568589
0.00061992
0.000662693
0.000699017
0.000730627
0.000758925
0.000785021
0.000809776
0.000833839
0.000857692
0.000881675
0.000906027
0.000930907
0.000956407
0.000982572
0.00100942
0.00103695
0.00106515
0.00109404
0.00112359
0.00115375
0.00118447
0.00121572
0.00124746
0.00127968
0.00131235
0.00134543
0.00137892
0.0014128
0.00144704
0.00148163
0.00151658
0.00155187
0.00158751
0.00162342
0.00165959
0.00169603
0.00173273
0.00176969
0.00180693
0.00184444
0.00188222
0.00192027
0.0019586
0.0019972
0.00203608
0.00207524
0.00211467
0.00215437
0.00219435
0.00223459
0.00227509
0.00231586
0.0023569
0.00239818
0.00243972
0.00248151
0.00252354
0.0025658
0.0026083
0.00265101
0.00269395
0.00273709
0.00278042
0.00282395
0.00286765
0.00291152
0.00295554
0.0029997
0.00304399
0.0030884
0.0031329
0.00317748
0.00322214
0.00326684
0.00331157
0.00335632
0.00340107
0.00344579
0.00349047
0.00353509
0.00357962
0.00362405
0.00366836
0.00371253
0.00375653
0.00380035
0.00384396
0.00388735
0.00393049
0.00397337
0.00401597
0.00405827
0.00410024
0.00414187
0.00418314
0.00422402
0.00426449
0.00430454
0.00434413
0.00438324
0.00442184
0.00445991
0.00449742
0.00453433
0.00457061
0.00460623
0.00464114
0.0046753
0.00470868
0.00474121
0.00477286
0.00480357
0.00483328
0.00486194
0.00488949
0.00491588
0.00494104
0.00496492
0.00498747
0.00500876
0.00502857
0.00504688
0.00506355
0.0050786
0.00509192
0.00510333
0.00511278
0.00512032
0.00512597
0.00512974
0.00513162
0.00513163
0.00512978
0.00512609
0.00512059
0.00511332
0.00510434
0.0050937
0.00508148
0.00506775
0.00505259
0.00503611
0.0050184
0.00499957
0.00497973
0.00495901
0.00493753
0.00491542
0.00489283
0.0048699
0.00484676
0.00482357
0.00480048
0.00477763
0.00475517
0.00473327
0.00471206
0.00469169
0.00467228
0.00465394
0.00463676
0.00462078
0.00460603
0.00459252
0.00458025
0.00456921
0.00455936
0.00455071
0.00454321
0.00453674
0.00453083
0.00452426
0.00451498
1.2901e-05
0.000103804
0.000230155
0.000345982
0.000443821
0.000525391
0.000593133
0.000649412
0.000696701
0.000737091
0.000772322
0.00080381
0.00083269
0.000859857
0.000886001
0.000911635
0.000937132
0.000962761
0.000988776
0.00101527
0.00104229
0.00106985
0.00109794
0.00112651
0.00115574
0.00118556
0.00121594
0.00124685
0.00127825
0.00131013
0.00134245
0.00137519
0.00140834
0.00144188
0.00147579
0.00151005
0.00154464
0.00157958
0.00161485
0.00165043
0.00168618
0.00172214
0.00175831
0.00179469
0.00183129
0.00186811
0.00190516
0.00194244
0.00197996
0.00201772
0.00205573
0.00209399
0.0021325
0.00217126
0.00221028
0.00224955
0.00228909
0.00232888
0.00236893
0.00240924
0.00244981
0.00249065
0.00253175
0.0025731
0.00261472
0.00265659
0.00269871
0.00274109
0.0027837
0.00282656
0.00286964
0.00291295
0.00295647
0.0030002
0.00304412
0.00308822
0.00313249
0.00317691
0.00322147
0.00326616
0.00331095
0.00335583
0.00340077
0.00344577
0.0034908
0.00353584
0.00358087
0.00362587
0.00367082
0.00371569
0.00376047
0.00380513
0.00384965
0.00389402
0.0039382
0.00398218
0.00402595
0.00406947
0.00411273
0.00415571
0.0041984
0.00424076
0.00428279
0.00432446
0.00436576
0.00440665
0.00444712
0.00448715
0.0045267
0.00456576
0.0046043
0.00464228
0.00467967
0.00471644
0.00475255
0.00478794
0.00482259
0.00485643
0.00488942
0.00492149
0.00495259
0.00498266
0.00501163
0.00503945
0.00506604
0.00509137
0.0051154
0.00513801
0.00515918
0.00517883
0.00519681
0.00521306
0.00522732
0.00523943
0.00524958
0.00525776
0.00526396
0.00526817
0.00527038
0.0052706
0.00526882
0.00526508
0.00525939
0.00525182
0.00524239
0.00523119
0.00521827
0.00520372
0.00518764
0.00517011
0.00515124
0.00513116
0.00510997
0.00508783
0.00506485
0.0050412
0.00501701
0.00499245
0.00496767
0.00494284
0.00491812
0.0048937
0.00486974
0.00484643
0.00482393
0.00480241
0.00478202
0.00476289
0.00474512
0.0047288
0.00471398
0.0047007
0.00468898
0.00467884
0.00467031
0.00466339
0.00465802
0.00465384
0.00464994
0.00464503
1.3268e-05
0.000102964
0.000231029
0.000350672
0.000453177
0.000539408
0.000611823
0.000672525
0.000723896
0.000767985
0.000806513
0.000840894
0.000872267
0.000901543
0.000929497
0.000956642
0.000983341
0.00100984
0.00103646
0.00106336
0.00109064
0.00111836
0.00114658
0.00117537
0.00120468
0.00123446
0.0012647
0.00129537
0.00132645
0.00135791
0.00138974
0.00142192
0.00145442
0.00148723
0.00152035
0.00155374
0.00158738
0.00162132
0.00165558
0.00169018
0.00172499
0.00175998
0.00179512