/*--------------------------------*- C++ -*----------------------------------*\
| =========                 |                                                 |
| \\      /  F ield         | OpenFOAM: The Open Source CFD Toolbox           |
|  \\    /   O peration     | Version:  v1712                                 |
|   \\  /    A nd           | Web:      www.OpenFOAM.com                      |
|    \\/     M anipulation  |                                                 |
\*---------------------------------------------------------------------------*/
FoamFile
{
    version     2.0;
    format      ascii;
    class       volScalarField;
    location    "200";
    object      p;
}
// * * * * * * * * * * * * * * * * * * * * * * * * * * * * * * * * * * * * * //

dimensions      [0 2 -2 0 0 0 0];


internalField   nonuniform List<scalar> 
12225
(
-2.66781
-4.82505
-5.91766
-6.23142
-6.40825
-6.58705
-6.73517
-6.84686
-6.93855
-7.02157
-7.099
-7.17192
-7.24199
-7.31124
-7.38216
-7.45424
-7.54207
-7.59601
-5.79805
-6.58572
-6.79064
-6.70268
-6.67768
-6.74199
-6.82513
-6.89949
-6.96904
-7.03835
-7.10704
-7.17417
-7.24031
-7.30665
-7.37489
-7.44631
-7.52576
-7.62883
-6.17806
-6.11202
-6.23149
-6.31857
-6.42697
-6.56951
-6.70436
-6.81487
-6.90893
-6.99464
-7.07447
-7.14929
-7.22064
-7.29031
-7.3603
-7.43185
-7.50974
-7.59274
-6.05075
-5.96331
-6.22256
-6.4147
-6.53723
-6.65853
-6.77217
-6.8666
-6.94781
-7.02307
-7.09468
-7.1631
-7.2293
-7.29456
-7.36021
-7.42697
-7.49601
-7.56197
-6.04232
-6.05687
-6.30389
-6.46893
-6.56191
-6.6604
-6.76269
-6.85319
-6.9333
-7.00843
-7.08038
-7.14927
-7.21577
-7.28084
-7.34539
-7.40961
-7.47307
-7.532
-6.10337
-6.14843
-6.33495
-6.47497
-6.56518
-6.66134
-6.76193
-6.8524
-6.93275
-7.00764
-7.07898
-7.14704
-7.2124
-7.27583
-7.33794
-7.39858
-7.45693
-7.51011
-6.16598
-6.20822
-6.35227
-6.48263
-6.57675
-6.67056
-6.76663
-6.85433
-6.93296
-7.00626
-7.07602
-7.14258
-7.20634
-7.26785
-7.32742
-7.38472
-7.4388
-7.48734
-6.22149
-6.25868
-6.37621
-6.49708
-6.59065
-6.67983
-6.77037
-6.85486
-6.93168
-7.00345
-7.07174
-7.13686
-7.19907
-7.25871
-7.31589
-7.37019
-7.42072
-7.46574
-6.27325
-6.3071
-6.40469
-6.51355
-6.60368
-6.68833
-6.77385
-6.85515
-6.93005
-7.00017
-7.06686
-7.13039
-7.19091
-7.24859
-7.3034
-7.35494
-7.40248
-7.44474
-6.32234
-6.35295
-6.43435
-6.53098
-6.61659
-6.6971
-6.77792
-6.85577
-6.9284
-6.99662
-7.06149
-7.12325
-7.18193
-7.23759
-7.29012
-7.33917
-7.38419
-7.42428
-6.36855
-6.39567
-6.46411
-6.54948
-6.62987
-6.70624
-6.7825
-6.85671
-6.92677
-6.9929
-7.05578
-7.11562
-7.17237
-7.22599
-7.27636
-7.32317
-7.36606
-7.40438
-6.40808
-6.43211
-6.49106
-6.56717
-6.64231
-6.71477
-6.78701
-6.85782
-6.92536
-6.9894
-7.05035
-7.10834
-7.16327
-7.21505
-7.26355
-7.30851
-7.34971
-7.38667
-6.44441
-6.46579
-6.51693
-6.58481
-6.65465
-6.72319
-6.79161
-6.85908
-6.92401
-6.9859
-7.04487
-7.10097
-7.15409
-7.20409
-7.25083
-7.29413
-7.33385
-7.36966
-6.48217
-6.50094
-6.54481
-6.60455
-6.66849
-6.73257
-6.79683
-6.86058
-6.92248
-6.98183
-7.03851
-7.09245
-7.14352
-7.19157
-7.23645
-7.27805
-7.3163
-7.351
-6.51985
-6.53608
-6.57347
-6.62555
-6.68328
-6.74248
-6.80233
-6.86208
-6.9206
-6.97708
-7.03117
-7.08273
-7.13157
-7.17754
-7.22052
-7.26043
-7.29725
-7.33088
-6.55515
-6.56905
-6.60092
-6.64618
-6.69784
-6.75201
-6.80738
-6.86306
-6.91801
-6.97139
-7.02273
-7.07176
-7.1183
-7.16217
-7.20327
-7.24155
-7.27703
-7.30967
-6.58468
-6.59665
-6.62412
-6.66375
-6.71002
-6.75949
-6.81065
-6.86246
-6.91395
-6.96427
-7.01288
-7.05945
-7.10376
-7.14564
-7.18499
-7.2218
-7.25607
-7.28782
-6.60346
-6.61405
-6.63846
-6.67409
-6.71634
-6.76214
-6.80992
-6.8586
-6.90721
-6.95494
-7.00121
-7.04567
-7.08808
-7.12828
-7.16618
-7.20176
-7.23504
-7.26605
-6.60375
-6.61371
-6.63679
-6.67073
-6.71125
-6.75535
-6.80143
-6.84846
-6.89551
-6.94178
-6.98669
-7.02988
-7.07112
-7.11028
-7.1473
-7.18215
-7.21487
-7.24553
-6.57949
-6.58997
-6.61425
-6.64998
-6.69236
-6.73791
-6.78502
-6.83285
-6.88055
-6.92728
-6.97248
-7.01582
-7.05713
-7.0963
-7.13328
-7.16808
-7.20073
-7.23136
-6.5452
-6.55657
-6.58334
-6.62294
-6.66919
-6.71773
-6.76726
-6.81727
-6.86681
-6.91496
-6.96122
-7.0054
-7.04739
-7.0871
-7.12451
-7.15967
-7.19267
-7.22362
-6.50286
-6.51496
-6.54551
-6.59175
-6.64367
-6.69579
-6.74836
-6.80153
-6.85386
-6.90414
-6.95201
-6.99745
-7.0404
-7.08083
-7.11878
-7.15433
-7.1876
-7.21873
-6.45589
-6.4673
-6.50236
-6.55867
-6.61827
-6.67443
-6.7303
-6.78681
-6.84199
-6.89452
-6.94428
-6.99134
-7.03562
-7.07711
-7.1159
-7.15215
-7.18603
-7.21778
-6.40682
-6.41589
-6.45729
-6.52498
-6.59138
-6.65251
-6.71402
-6.77516
-6.83311
-6.88736
-6.93849
-6.98665
-7.03172
-7.07373
-7.11288
-7.14938
-7.18341
-7.21509
-6.35566
-6.35696
-6.41993
-6.50177
-6.56553
-6.62638
-6.69411
-6.76196
-6.82454
-6.88219
-6.93616
-6.98661
-7.03337
-7.07656
-7.11651
-7.15357
-7.18805
-7.22044
-6.30939
-6.26092
-6.37683
-6.49851
-6.56127
-6.61412
-6.67898
-6.74591
-6.80785
-6.86554
-6.92026
-6.97175
-7.0196
-7.06387
-7.10487
-7.14294
-7.17828
-7.21104
-6.32648
-6.12847
-6.26179
-6.44005
-6.54552
-6.62633
-6.70602
-6.77854
-6.8418
-6.89917
-6.9526
-7.00208
-7.04749
-7.08917
-7.12759
-7.16318
-7.19642
-7.22838
-6.46736
-6.21991
-6.19651
-6.25182
-6.33486
-6.4435
-6.55491
-6.65274
-6.73764
-6.81413
-6.88387
-6.94673
-7.00296
-7.05341
-7.09888
-7.14002
-7.17764
-7.21304
-6.19535
-6.82607
-6.9448
-6.80491
-6.71728
-6.72465
-6.76689
-6.81183
-6.85745
-6.90567
-6.95468
-7.00203
-7.04641
-7.08774
-7.12608
-7.16129
-7.19373
-7.22477
-3.14089
-4.90799
-5.9213
-6.20284
-6.32934
-6.47208
-6.60202
-6.70272
-6.78498
-6.85817
-6.92438
-6.98347
-7.03604
-7.08298
-7.12501
-7.16232
-7.19505
-7.22164
-8.02215
-8.02194
-8.02234
-8.02349
-8.02512
-8.02696
-8.02889
-8.03092
-8.03306
-8.03532
-8.03772
-8.04031
-8.04313
-8.04623
-8.04964
-8.0534
-8.05754
-8.06211
-8.06715
-8.0727
-8.07882
-8.08556
-8.09295
-8.10107
-8.10995
-8.11964
-8.13018
-8.14161
-8.15395
-8.16723
-8.18145
-8.19663
-8.21275
-8.2298
-8.24774
-8.26657
-8.28627
-8.30683
-8.32823
-8.35044
-8.37336
-8.39691
-8.42099
-8.44558
-8.47061
-8.49606
-8.52187
-8.548
-8.57439
-8.60101
-8.62777
-8.65463
-8.6815
-8.70834
-8.73504
-8.76155
-8.78776
-8.8136
-8.83894
-8.8637
-8.88775
-8.91099
-8.93326
-8.95447
-8.97444
-8.99305
-9.01012
-9.02552
-9.03903
-9.05053
-9.05978
-9.06663
-9.07086
-9.07229
-9.07067
-9.06584
-9.05753
-9.04554
-9.02962
-9.00957
-8.98512
-8.95607
-8.92214
-8.88315
-8.83882
-8.78893
-8.73321
-8.67146
-8.60343
-8.52892
-8.44774
-8.35969
-8.26459
-8.16231
-8.05282
-7.93612
-7.81204
-7.68011
-7.53988
-7.39138
-7.2347
-7.06989
-6.89697
-6.71595
-6.52688
-6.32984
-6.12491
-5.91225
-5.69201
-5.4644
-5.22964
-4.98801
-4.73979
-4.48531
-4.22493
-3.95903
-3.68803
-3.41237
-3.13249
-2.84887
-2.56201
-2.27241
-1.98061
-1.68713
-1.3925
-1.09721
-0.801773
-0.506691
-0.212436
0.0805349
0.371783
0.660878
0.947432
1.23107
1.51146
1.78829
2.06131
2.3303
2.5951
2.85552
3.11144
3.36279
3.60953
3.8517
4.08936
4.32261
4.55159
4.77647
4.99747
5.21484
5.42884
5.63981
5.84807
6.05399
6.25796
6.46041
6.66177
6.86249
7.06306
7.26396
7.46568
7.66872
7.87356
8.08069
8.29057
8.50358
8.72013
8.94066
9.1653
9.39363
9.6253
9.86026
10.0983
10.3391
10.5821
10.8264
11.0721
11.3184
11.5762
11.8341
-8.02193
-8.02198
-8.02249
-8.02358
-8.0249
-8.02619
-8.02738
-8.02851
-8.0297
-8.03106
-8.03266
-8.03455
-8.03674
-8.03922
-8.042
-8.04514
-8.04866
-8.05261
-8.05704
-8.062
-8.06753
-8.0737
-8.08057
-8.08818
-8.09659
-8.10585
-8.11599
-8.12705
-8.13906
-8.15203
-8.16597
-8.18089
-8.19677
-8.21359
-8.23131
-8.24992
-8.26938
-8.28967
-8.31075
-8.33258
-8.3551
-8.37824
-8.40194
-8.42615
-8.45082
-8.47591
-8.50137
-8.52716
-8.55321
-8.57949
-8.60594
-8.63249
-8.65907
-8.68563
-8.71208
-8.73836
-8.76436
-8.79
-8.81518
-8.83981
-8.86376
-8.88692
-8.90916
-8.93037
-8.95038
-8.96906
-8.98626
-9.00181
-9.01554
-9.02728
-9.03684
-9.04404
-9.04868
-9.05056
-9.04947
-9.04521
-9.03754
-9.02624
-9.01109
-8.99186
-8.96831
-8.94021
-8.90733
-8.86943
-8.82628
-8.77765
-8.72328
-8.66297
-8.59647
-8.5236
-8.44417
-8.35796
-8.26478
-8.16444
-8.05677
-7.94152
-7.81844
-7.68747
-7.54871
-7.40209
-7.24749
-7.08483
-6.91409
-6.73528
-6.54843
-6.35361
-6.15091
-5.94046
-5.72242
-5.49697
-5.26434
-5.02478
-4.77857
-4.52603
-4.26751
-4.00338
-3.73405
-3.45994
-3.18151
-2.89922
-2.61354
-2.32501
-2.03413
-1.74144
-1.44746
-1.15269
-0.857619
-0.562759
-0.268598
0.0244216
0.315847
0.605255
0.892242
1.17644
1.45749
1.7351
2.009
2.27896
2.54479
2.80631
3.06338
3.31591
3.56386
3.80725
4.04613
4.28059
4.51075
4.73679
4.9589
5.17732
5.39231
5.60418
5.81325
6.0199
6.2245
6.42746
6.62921
6.8302
7.0309
7.2318
7.43337
7.63612
7.8405
8.04703
8.25621
8.46839
8.68392
8.90319
9.12628
9.35287
9.5828
9.81609
10.0526
10.2919
10.5336
10.7772
11.0231
11.2702
11.5316
11.7835
-8.01827
-8.01906
-8.02039
-8.02181
-8.02296
-8.02376
-8.02429
-8.02471
-8.02516
-8.02576
-8.02658
-8.02768
-8.02911
-8.03091
-8.0331
-8.03572
-8.0388
-8.04239
-8.04652
-8.05125
-8.05662
-8.06269
-8.0695
-8.07711
-8.08554
-8.09483
-8.105
-8.11609
-8.12809
-8.14102
-8.15487
-8.16963
-8.18529
-8.20184
-8.21925
-8.23749
-8.25653
-8.27635
-8.2969
-8.31815
-8.34006
-8.36257
-8.38564
-8.40923
-8.43328
-8.45776
-8.48261
-8.5078
-8.53328
-8.55899
-8.58488
-8.61089
-8.63696
-8.66302
-8.689
-8.71482
-8.74039
-8.76563
-8.79045
-8.81474
-8.83838
-8.86128
-8.88329
-8.90431
-8.92417
-8.94275
-8.95989
-8.97544
-8.98922
-9.00106
-9.01078
-9.0182
-9.02312
-9.02534
-9.02467
-9.02088
-9.01376
-9.0031
-8.98865
-8.9702
-8.94752
-8.92037
-8.88852
-8.85173
-8.80979
-8.76244
-8.70945
-8.6506
-8.58566
-8.51444
-8.43674
-8.35236
-8.26111
-8.1628
-8.05723
-7.94416
-7.82335
-7.69471
-7.55828
-7.41402
-7.26185
-7.10168
-6.9335
-6.75727
-6.57304
-6.38085
-6.18079
-5.97298
-5.75756
-5.53472
-5.30466
-5.06763
-4.8239
-4.57377
-4.31758
-4.0557
-3.78852
-3.51646
-3.23995
-2.95944
-2.67544
-2.38842
-2.09892
-1.80746
-1.51455
-1.22071
-0.926424
-0.63217
-0.338462
-0.0457492
0.245519
0.534923
0.822048
1.10653
1.388
1.66616
1.94072
2.21145
2.47814
2.74059
2.99867
3.25226
3.50132
3.74584
3.98587
4.22146
4.45275
4.67986
4.903
5.12238
5.33825
5.55091
5.76066
5.96786
6.17288
6.37611
6.57797
6.7789
6.97937
7.17982
7.38075
7.58267
7.78604
7.9913
8.19901
8.40961
8.62343
8.84079
9.06183
9.28641
9.51444
9.74592
9.98074
10.2186
10.4593
10.7024
10.9489
11.1968
11.4615
11.7008
-8.01086
-8.01265
-8.01538
-8.01771
-8.01929
-8.02032
-8.02096
-8.02139
-8.02175
-8.02218
-8.02279
-8.02366
-8.02484
-8.0264
-8.02838
-8.03083
-8.03378
-8.03727
-8.04136
-8.04609
-8.0515
-8.05763
-8.06452
-8.07221
-8.08072
-8.09008
-8.10031
-8.11142
-8.1234
-8.13626
-8.14999
-8.16459
-8.18004
-8.19633
-8.21343
-8.23132
-8.24997
-8.26936
-8.28944
-8.3102
-8.33159
-8.35357
-8.3761
-8.39915
-8.42268
-8.44664
-8.47099
-8.49569
-8.52069
-8.54594
-8.57139
-8.59698
-8.62265
-8.64834
-8.67397
-8.69947
-8.72475
-8.74973
-8.77431
-8.7984
-8.82188
-8.84464
-8.86656
-8.88751
-8.90735
-8.92595
-8.94315
-8.95879
-8.97271
-8.98474
-8.9947
-9.00241
-9.00767
-9.01028
-9.01005
-9.00675
-9.00019
-8.99012
-8.97635
-8.95862
-8.93673
-8.91042
-8.87948
-8.84366
-8.80274
-8.75648
-8.70464
-8.647
-8.58333
-8.51342
-8.4371
-8.35414
-8.26434
-8.16751
-8.06345
-7.95197
-7.83287
-7.70605
-7.57147
-7.42908
-7.27878
-7.12053
-6.95428
-6.78001
-6.59776
-6.40755
-6.20948
-6.00365
-5.7902
-5.56931
-5.34116
-5.10601
-4.86412
-4.61577
-4.3613
-4.10107
-3.83546
-3.56489
-3.28977
-3.01056
-2.72775
-2.44182
-2.15329
-1.86269
-1.57053
-1.27732
-0.983557
-0.689702
-0.396259
-0.103701
0.187527
0.477004
0.764319
1.0491
1.33098
1.60964
1.88481
2.15623
2.42369
2.68697
2.94594
3.20048
3.45053
3.69607
3.93714
4.17377
4.4061
4.63423
4.85835
5.07867
5.29543
5.5089
5.71939
5.92723
6.13278
6.33641
6.53855
6.7396
6.94004
7.1403
7.34083
7.54214
7.74473
7.94903
8.15551
8.36459
8.57661
8.79191
9.01067
9.23294
9.45873
9.68805
9.92081
10.1568
10.3958
10.6376
10.8831
11.1298
11.3925
11.6181
-8.00105
-8.00396
-8.00852
-8.0122
-8.01464
-8.01628
-8.0174
-8.01818
-8.01881
-8.01943
-8.02019
-8.02117
-8.02247
-8.02415
-8.02626
-8.02885
-8.03197
-8.03566
-8.03996
-8.04492
-8.05057
-8.05695
-8.06407
-8.07198
-8.08069
-8.09022
-8.10058
-8.11178
-8.12381
-8.13668
-8.15037
-8.16489
-8.18021
-8.19632
-8.21319
-8.23082
-8.24917
-8.26823
-8.28795
-8.30832
-8.32931
-8.35088
-8.373
-8.39564
-8.41876
-8.44232
-8.46628
-8.49061
-8.51525
-8.54016
-8.56529
-8.59057
-8.61596
-8.64138
-8.66677
-8.69205
-8.71714
-8.74195
-8.76639
-8.79036
-8.81376
-8.83646
-8.85835
-8.87931
-8.89919
-8.91786
-8.93516
-8.95093
-8.96503
-8.97726
-8.98746
-8.99545
-9.00102
-9.00399
-9.00415
-9.00129
-8.9952
-8.98566
-8.97244
-8.95532
-8.93407
-8.90845
-8.87823
-8.84319
-8.80308
-8.75767
-8.70673
-8.65002
-8.58731
-8.51842
-8.44313
-8.36123
-8.27252
-8.1768
-8.07388
-7.96358
-7.84574
-7.72023
-7.58698
-7.4459
-7.29693
-7.13999
-6.97505
-6.80211
-6.62116
-6.43226
-6.23547
-6.03091
-5.81871
-5.59903
-5.37208
-5.13807
-4.89728
-4.64999
-4.39653
-4.13725
-3.87253
-3.60277
-3.32841
-3.04989
-2.76769
-2.4823
-2.19425
-1.90405
-1.6122
-1.31924
-1.02567
-0.73194
-0.438532
-0.14595
0.145375
0.435004
0.722549
1.00761
1.28983
1.56889
1.8445
2.1164
2.38436
2.64819
2.90771
3.16284
3.41348
3.65963
3.90129
4.13854
4.37143
4.60014
4.82478
5.0456
5.26282
5.4767
5.68753
5.89564
6.10138
6.30516
6.50732
6.7083
6.90853
7.10849
7.30859
7.50934
7.71116
7.91453
8.11989
8.32765
8.53817
8.75177
8.96867
9.18903
9.41292
9.6404
9.8714
10.1057
10.3432
10.5835
10.8275
11.0718
11.3304
11.5433
-7.9909
-7.99482
-8.00122
-8.00636
-8.00983
-8.01228
-8.01408
-8.01543
-8.01654
-8.01758
-8.0187
-8.02003
-8.02165
-8.02364
-8.02607
-8.02899
-8.03245
-8.03648
-8.04114
-8.04644
-8.05243
-8.05914
-8.06657
-8.07477
-8.08373
-8.09348
-8.10402
-8.11535
-8.12747
-8.14039
-8.15408
-8.16854
-8.18377
-8.19975
-8.21645
-8.23388
-8.25199
-8.27079
-8.29024
-8.31032
-8.33101
-8.35227
-8.37408
-8.39641
-8.41923
-8.44249
-8.46617
-8.49022
-8.5146
-8.53927
-8.56416
-8.58924
-8.61444
-8.63969
-8.66493
-8.69009
-8.71507
-8.7398
-8.76419
-8.78813
-8.81152
-8.83425
-8.85619
-8.87722
-8.8972
-8.91599
-8.93344
-8.9494
-8.9637
-8.97618
-8.98664
-8.99492
-9.00082
-9.00413
-9.00467
-9.00222
-8.99657
-8.98749
-8.97476
-8.95816
-8.93746
-8.91242
-8.88281
-8.8484
-8.80895
-8.76423
-8.71399
-8.65801
-8.59607
-8.52795
-8.45346
-8.37238
-8.28449
-8.1896
-8.08753
-7.9781
-7.86116
-7.73658
-7.60425
-7.46408
-7.316
-7.15995
-6.99588
-6.82378
-6.64366
-6.45557
-6.25957
-6.05577
-5.8443
-5.62532
-5.39902
-5.16563
-4.92541
-4.67865
-4.42567
-4.16682
-3.90248
-3.63305
-3.35897
-3.08067
-2.79865
-2.51341
-2.22545
-1.93528
-1.64344
-1.35043
-1.05679
-0.762962
-0.469428
-0.176676
0.114842
0.4047
0.692491
0.977819
1.26033
1.53969
1.8156
2.0878
2.35606
2.62017
2.87996
3.13534
3.38622
3.63259
3.87444
4.11185
4.34487
4.57365
4.79834
5.01915
5.2363
5.45007
5.66074
5.86862
6.07406
6.27745
6.47916
6.67962
6.87925
7.07851
7.27783
7.47769
7.67855
7.88085
8.08505
8.29155
8.50072
8.71289
8.9283
9.14715
9.36959
9.59567
9.82536
10.0585
10.2948
10.5339
10.7763
11.0182
11.2726
11.4746
-7.98214
-7.98688
-7.99476
-8.00126
-8.00576
-8.00907
-8.01161
-8.01363
-8.01533
-8.01691
-8.01853
-8.02032
-8.02238
-8.02481
-8.02766
-8.03099
-8.03486
-8.0393
-8.04434
-8.05003
-8.05638
-8.06342
-8.07118
-8.07966
-8.08887
-8.09883
-8.10955
-8.12102
-8.13324
-8.14621
-8.15992
-8.17437
-8.18954
-8.20544
-8.22204
-8.23933
-8.25729
-8.27591
-8.29517
-8.31506
-8.33553
-8.35658
-8.37818
-8.40029
-8.4229
-8.44596
-8.46945
-8.49332
-8.51753
-8.54205
-8.56681
-8.59177
-8.61687
-8.64205
-8.66723
-8.69235
-8.71732
-8.74207
-8.76649
-8.79048
-8.81395
-8.83677
-8.85883
-8.88
-8.90014
-8.91912
-8.93678
-8.95296
-8.96751
-8.98025
-8.991
-8.99958
-9.0058
-9.00946
-9.01036
-9.00829
-9.00303
-8.99437
-8.98208
-8.96593
-8.94569
-8.92114
-8.89203
-8.85813
-8.81921
-8.77502
-8.72534
-8.66993
-8.60855
-8.54102
-8.46712
-8.38663
-8.29933
-8.20504
-8.10358
-7.99475
-7.87842
-7.75445
-7.62272
-7.48314
-7.33562
-7.18011
-7.01656
-6.84495
-6.6653
-6.47764
-6.28205
-6.07862
-5.86749
-5.64881
-5.42278
-5.18961
-4.94958
-4.70296
-4.45008
-4.19128
-3.92696
-3.6575
-3.38334
-3.10495
-2.82279
-2.53739
-2.24924
-1.95886
-1.66678
-1.37353
-1.07961
-0.785529
-0.491744
-0.198723
0.0930646
0.383208
0.671273
0.956875
1.23964
1.51924
1.79538
2.06777
2.33619
2.60041
2.8603
3.11573
3.36664
3.61297
3.85475
4.09201
4.32486
4.5534
4.77782
4.99826
5.215
5.42827
5.63838
5.84562
6.05037
6.25298
6.45386
6.65339
6.85204
7.05023
7.24843
7.44711
7.64673
7.84774
8.05061
8.25574
8.46353
8.67431
8.88836
9.10589
9.32709
9.55204
9.78069
10.0129
10.2483
10.4864
10.7274
10.9669
11.2178
11.4108
-7.97594
-7.98124
-7.99009
-7.99762
-8.00304
-8.00714
-8.01039
-8.01306
-8.01536
-8.0175
-8.01965
-8.02195
-8.02449
-8.02738
-8.03068
-8.03444
-8.03873
-8.04357
-8.049
-8.05505
-8.06175
-8.06911
-8.07716
-8.0859
-8.09535
-8.10551
-8.11639
-8.12799
-8.14031
-8.15335
-8.1671
-8.18156
-8.19672
-8.21258
-8.22911
-8.24633
-8.2642
-8.28272
-8.30186
-8.32162
-8.34197
-8.36289
-8.38435
-8.40635
-8.42883
-8.45179
-8.47518
-8.49896
-8.5231
-8.54756
-8.57228
-8.59722
-8.62232
-8.64751
-8.67273
-8.6979
-8.72294
-8.74778
-8.7723
-8.79643
-8.82004
-8.84303
-8.86527
-8.88664
-8.90699
-8.9262
-8.9441
-8.96054
-8.97536
-8.98838
-8.99943
-9.00832
-9.01486
-9.01885
-9.02008
-9.01836
-9.01346
-9.00516
-8.99324
-8.97747
-8.95762
-8.93345
-8.90474
-8.87124
-8.83272
-8.78894
-8.73967
-8.68466
-8.62371
-8.55658
-8.48308
-8.40299
-8.3161
-8.2222
-8.12111
-8.01266
-7.89669
-7.77308
-7.64168
-7.50242
-7.35519
-7.19993
-7.03661
-6.8652
-6.68572
-6.4982
-6.30272
-6.09936
-5.88826
-5.66957
-5.44349
-5.21025
-4.97009
-4.72332
-4.47025
-4.21122
-3.94663
-3.67688
-3.4024
-3.12366
-2.84114
-2.55536
-2.26683
-1.97606
-1.68359
-1.38994
-1.09564
-0.801201
-0.507088
-0.213753
0.0783442
0.36878
0.657123
0.942971
1.22596
1.50574
1.78202
2.0545
2.32296
2.58718
2.84702
3.10235
3.35313
3.59927
3.84081
4.07776
4.31024
4.53834
4.76224
4.98212
5.19821
5.41077
5.62009
5.82647
6.03027
6.23187
6.43165
6.63004
6.82747
7.02438
7.22125
7.41855
7.61674
7.8163
8.0177
8.22136
8.42769
8.63705
8.84974
9.06601
9.28606
9.50998
9.7377
9.96904
10.2037
10.4408
10.6805
10.9179
11.1659
11.3516
-7.97284
-7.97839
-7.98767
-7.99586
-8.00196
-8.00671
-8.01057
-8.01381
-8.01666
-8.01933
-8.02199
-8.02476
-8.02776
-8.03108
-8.0348
-8.03896
-8.04363
-8.04884
-8.05461
-8.06099
-8.06799
-8.07563
-8.08393
-8.0929
-8.10255
-8.11289
-8.12392
-8.13564
-8.14806
-8.16117
-8.17498
-8.18947
-8.20465
-8.2205
-8.23703
-8.25421
-8.27205
-8.29052
-8.30962
-8.32932
-8.34962
-8.37049
-8.3919
-8.41385
-8.43631
-8.45924
-8.48261
-8.5064
-8.53055
-8.55504
-8.57981
-8.60481
-8.62998
-8.65526
-8.68059
-8.70589
-8.73108
-8.75607
-8.78077
-8.80509
-8.8289
-8.85211
-8.87458
-8.89618
-8.91679
-8.93625
-8.95442
-8.97113
-8.98623
-8.99954
-9.01087
-9.02006
-9.02689
-9.03118
-9.03272
-9.0313
-9.0267
-9.0187
-9.00709
-8.99162
-8.97207
-8.9482
-8.91978
-8.88657
-8.84834
-8.80484
-8.75584
-8.7011
-8.6404
-8.57353
-8.50027
-8.42042
-8.33373
-8.24004
-8.13914
-8.03086
-7.91506
-7.79158
-7.6603
-7.52113
-7.37395
-7.21873
-7.0554
-6.88396
-6.7044
-6.51678
-6.32115
-6.11762
-5.9063
-5.68737
-5.461
-5.22744
-4.98693
-4.73977
-4.48628
-4.2268
-3.96174
-3.69149
-3.4165
-3.13724
-2.85421
-2.5679
-2.27885
-1.98758
-1.69462
-1.40049
-1.10574
-0.810909
-0.516441
-0.222789
0.069608
0.360308
0.648885
0.934917
1.21804
1.4979
1.77421
2.04668
2.31505
2.57915
2.8388
3.0939
3.34436
3.59016
3.83126
4.06774
4.29965
4.52715
4.75034
4.96946
5.18471
5.39637
5.60471
5.81006
6.01276
6.21319
6.41174
6.60885
6.80493
7.00047
7.19591
7.39174
7.58843
7.78648
7.98636
8.18852
8.39338
8.60134
8.81272
9.02779
9.24677
9.46974
9.69665
9.92723
10.1611
10.3974
10.6359
10.8714
11.1169
11.297
-7.97284
-7.97837
-7.98764
-7.9961
-8.00262
-8.00781
-8.01212
-8.01583
-8.01913
-8.02224
-8.02532
-8.02851
-8.03191
-8.03561
-8.03968
-8.04419
-8.04917
-8.05469
-8.06075
-8.06739
-8.07464
-8.08251
-8.09102
-8.10018
-8.11
-8.12049
-8.13165
-8.14348
-8.156
-8.16919
-8.18306
-8.19761
-8.21282
-8.22871
-8.24525
-8.26246
-8.2803
-8.29879
-8.31789
-8.33761
-8.35792
-8.3788
-8.40025
-8.42223
-8.44472
-8.4677
-8.49114
-8.515
-8.53925
-8.56384
-8.58872
-8.61385
-8.63917
-8.66462
-8.69012
-8.7156
-8.74099
-8.7662
-8.79112
-8.81567
-8.83972
-8.86317
-8.88589
-8.90776
-8.92863
-8.94836
-8.96679
-8.98377
-8.99913
-9.0127
-9.0243
-9.03374
-9.04083
-9.04537
-9.04716
-9.04597
-9.04161
-9.03384
-9.02244
-9.00718
-8.98783
-8.96416
-8.93592
-8.90289
-8.86482
-8.82148
-8.77262
-8.71802
-8.65744
-8.59067
-8.51751
-8.43773
-8.3511
-8.25745
-8.15657
-8.0483
-7.93248
-7.80896
-7.67762
-7.53834
-7.39104
-7.23565
-7.07213
-6.90046
-6.72064
-6.53272
-6.33676
-6.13286
-5.92114
-5.70177
-5.47494
-5.24087
-4.99983
-4.75211
-4.49803
-4.23795
-3.97226
-3.70138
-3.42575
-3.14586
-2.86219
-2.57527
-2.28562
-1.99378
-1.70027
-1.40564
-1.11044
-0.815205
-0.520394
-0.226447
0.0661977
0.357118
0.645871
0.932025
1.2152
1.49505
1.77127
2.04359
2.31175
2.57557
2.83488
3.08958
3.33957
3.58481
3.8253
4.0611
4.29226
4.51893
4.74124
4.95941
5.17365
5.38424
5.59144
5.79561
5.99706
6.19621
6.39342
6.58914
6.78381
6.97789
7.17184
7.36616
7.56134
7.75787
7.95624
8.15692
8.36036
8.56697
8.7771
8.99106
9.20906
9.43117
9.65735
9.88727
10.1205
10.356
10.5934
10.8272
11.0707
11.2465
-7.97563
-7.98093
-7.98984
-7.99823
-8.00489
-8.01031
-8.0149
-8.01891
-8.02254
-8.02599
-8.0294
-8.03291
-8.03662
-8.04061
-8.04497
-8.04975
-8.05499
-8.06074
-8.06702
-8.07388
-8.08132
-8.08937
-8.09804
-8.10735
-8.11731
-8.12792
-8.13919
-8.15113
-8.16373
-8.177
-8.19094
-8.20556
-8.22083
-8.23678
-8.25338
-8.27063
-8.28854
-8.30708
-8.32624
-8.34603
-8.3664
-8.38737
-8.4089
-8.43097
-8.45357
-8.47667
-8.50024
-8.52424
-8.54863
-8.57338
-8.59844
-8.62376
-8.64927
-8.67492
-8.70064
-8.72635
-8.75197
-8.77742
-8.80259
-8.82738
-8.85169
-8.87539
-8.89836
-8.92048
-8.94159
-8.96156
-8.98023
-8.99744
-9.01303
-9.02681
-9.03861
-9.04825
-9.05552
-9.06024
-9.06219
-9.06115
-9.05693
-9.04929
-9.038
-9.02285
-9.0036
-8.98
-8.95184
-8.91886
-8.88083
-8.83752
-8.78868
-8.73408
-8.67348
-8.60669
-8.53348
-8.45363
-8.36693
-8.27318
-8.17218
-8.06377
-7.94779
-7.82408
-7.69252
-7.553
-7.40542
-7.24972
-7.08586
-6.91381
-6.73359
-6.54522
-6.34879
-6.14438
-5.93212
-5.71217
-5.48474
-5.25004
-5.00835
-4.75996
-4.50519
-4.24441
-3.978
-3.7064
-3.43006
-3.14947
-2.86513
-2.57755
-2.28727
-1.99483
-1.70077
-1.40564
-1.10999
-0.814366
-0.519228
-0.225018
0.0678229
0.358892
0.647738
0.933916
1.21704
1.49675
1.77275
2.04476
2.31255
2.5759
2.83469
3.08878
3.3381
3.58258
3.82227
4.05716
4.28738
4.51303
4.73428
4.95131
5.16437
5.37371
5.57964
5.78247
5.98256
6.18029
6.37608
6.57033
6.76351
6.95608
7.14852
7.34132
7.53499
7.73003
7.92694
8.1262
8.3283
8.53366
8.74265
8.95561
9.17274
9.39413
9.61968
9.84906
10.0817
10.3165
10.553
10.7853
11.0272
11.1999
-7.98077
-7.98567
-7.99395
-8.00197
-8.00853
-8.01397
-8.01865
-8.02281
-8.02663
-8.03028
-8.03391
-8.03763
-8.04156
-8.04577
-8.05033
-8.0553
-8.06072
-8.06665
-8.0731
-8.0801
-8.08768
-8.09587
-8.10466
-8.11408
-8.12414
-8.13485
-8.14621
-8.15824
-8.17092
-8.18428
-8.1983
-8.21299
-8.22835
-8.24437
-8.26105
-8.2784
-8.29638
-8.31502
-8.33428
-8.35417
-8.37467
-8.39576
-8.41743
-8.43965
-8.46241
-8.48567
-8.50941
-8.5336
-8.55818
-8.58313
-8.6084
-8.63393
-8.65966
-8.68554
-8.71149
-8.73743
-8.76329
-8.78897
-8.81437
-8.8394
-8.86393
-8.88785
-8.91103
-8.93335
-8.95465
-8.9748
-8.99364
-9.011
-9.02673
-9.04064
-9.05256
-9.06229
-9.06965
-9.07443
-9.07644
-9.07544
-9.07124
-9.06361
-9.05233
-9.03716
-9.01787
-8.99424
-8.96602
-8.93297
-8.89486
-8.85145
-8.8025
-8.74778
-8.68705
-8.6201
-8.54672
-8.4667
-8.37979
-8.28582
-8.18459
-8.07593
-7.95966
-7.83565
-7.70376
-7.56388
-7.41592
-7.25981
-7.09549
-6.92297
-6.74224
-6.55334
-6.35633
-6.15132
-5.93844
-5.71784
-5.48973
-5.25434
-5.01193
-4.76281
-4.50731
-4.24577
-3.97862
-3.70627
-3.4292
-3.14789
-2.86285
-2.5746
-2.28368
-1.99065
-1.69604
-1.40043
-1.10437
-0.808386
-0.512964
-0.21857
0.0743748
0.365472
0.654282
0.94034
1.22325
1.50266
1.77826
2.04979
2.31701
2.57972
2.83779
3.09107
3.33952
3.58307
3.82174
4.05556
4.28464
4.50909
4.72909
4.94482
5.15654
5.36449
5.56899
5.77037
5.96897
6.1652
6.35945
6.55217
6.74381
6.93484
7.12574
7.31703
7.5092
7.70278
7.89828
8.09621
8.29705
8.50126
8.70923
8.9213
9.13768
9.35846
9.5835
9.81244
10.0446
10.2789
10.5146
10.7457
10.9862
11.1568
-7.98769
-7.99209
-7.99957
-8.007
-8.01323
-8.01849
-8.02309
-8.02724
-8.0311
-8.03482
-8.03854
-8.04238
-8.04642
-8.05075
-8.05543
-8.06052
-8.06606
-8.07209
-8.07864
-8.08574
-8.09342
-8.10169
-8.11056
-8.12007
-8.13021
-8.141
-8.15244
-8.16455
-8.17732
-8.19076
-8.20486
-8.21965
-8.23509
-8.25121
-8.26799
-8.28543
-8.30352
-8.32227
-8.34165
-8.36168
-8.38233
-8.40358
-8.42542
-8.44783
-8.47077
-8.49423
-8.51817
-8.54255
-8.56734
-8.59249
-8.61796
-8.64369
-8.66964
-8.69572
-8.72187
-8.74802
-8.77407
-8.79993
-8.82551
-8.8507
-8.87538
-8.89944
-8.92274
-8.94517
-8.96656
-8.98678
-9.00567
-9.02307
-9.03882
-9.05273
-9.06463
-9.07433
-9.08164
-9.08636
-9.08828
-9.08719
-9.08288
-9.07513
-9.0637
-9.04838
-9.02894
-9.00513
-8.97672
-8.94348
-8.90517
-8.86155
-8.81238
-8.75742
-8.69644
-8.62924
-8.55559
-8.47529
-8.38809
-8.29382
-8.19226
-8.08326
-7.96663
-7.84224
-7.70995
-7.56964
-7.42123
-7.26465
-7.09984
-6.9268
-6.74552
-6.55604
-6.35844
-6.1528
-5.93927
-5.718
-5.48919
-5.25309
-5.00995
-4.76008
-4.50381
-4.24152
-3.97361
-3.70052
-3.42272
-3.1407
-2.85498
-2.56609
-2.27457
-1.98099
-1.68592
-1.38991
-1.09351
-0.797264
-0.50168
-0.207239
0.0856613
0.376629
0.66523
0.950996
1.23351
1.51243
1.78743
2.05828
2.32473
2.5866
2.84373
3.09603
3.34339
3.58581
3.82327
4.05584
4.28359
4.50667
4.72524
4.93952
5.14973
5.35617
5.55912
5.75893
5.95595
6.15059
6.34325
6.53439
6.72445
6.91392
7.1033
7.2931
7.48382
7.67601
7.87019
8.06688
8.26658
8.46977
8.67685
8.88817
9.10396
9.32426
9.54892
9.77753
10.0094
10.2432
10.4782
10.7084
10.9478
11.1172
-7.99588
-7.99972
-8.00628
-8.01296
-8.01869
-8.02359
-8.02795
-8.03192
-8.03567
-8.03932
-8.04301
-8.04684
-8.0509
-8.05525
-8.05997
-8.0651
-8.07068
-8.07676
-8.08337
-8.09053
-8.09826
-8.10659
-8.11553
-8.1251
-8.13531
-8.14616
-8.15767
-8.16984
-8.18268
-8.19619
-8.21038
-8.22524
-8.24077
-8.25698
-8.27385
-8.2914
-8.30961
-8.32848
-8.34801
-8.36819
-8.38899
-8.41042
-8.43243
-8.45502
-8.47814
-8.50178
-8.52588
-8.55043
-8.57538
-8.60069
-8.62631
-8.6522
-8.67828
-8.70449
-8.73076
-8.75701
-8.78315
-8.80909
-8.83472
-8.85995
-8.88465
-8.9087
-8.93198
-8.95436
-8.97568
-8.99582
-9.0146
-9.03188
-9.04748
-9.06122
-9.07294
-9.08245
-9.08955
-9.09404
-9.09572
-9.09439
-9.08982
-9.0818
-9.0701
-9.05451
-9.03478
-9.01068
-8.98199
-8.94845
-8.90984
-8.86591
-8.81643
-8.76116
-8.69987
-8.63234
-8.55838
-8.47774
-8.39021
-8.29558
-8.19367
-8.08429
-7.96728
-7.84248
-7.70977
-7.56902
-7.42015
-7.26309
-7.09778
-6.92421
-6.74238
-6.55233
-6.35413
-6.14787
-5.93369
-5.71176
-5.48227
-5.24547
-5.00163
-4.75104
-4.49405
-4.23104
-3.96243
-3.68865
-3.41019
-3.12753
-2.84121
-2.55177
-2.25976
-1.96575
-1.67032
-1.37403
-1.07741
-0.781051
-0.485476
-0.191153
0.101523
0.392173
0.680367
0.965633
1.24754
1.52576
1.79996
2.06991
2.33538
2.59619
2.85218
3.10327
3.34937
3.59045
3.82652
4.05764
4.2839
4.50544
4.72244
4.93512
5.14371
5.34851
5.54981
5.74796
5.94334
6.13633
6.32736
6.51689
6.70537
6.8933
7.08119
7.26953
7.45888
7.64975
7.84271
8.03827
8.23697
8.43926
8.6456
8.85631
9.07164
9.29159
9.516
9.74439
9.97604
10.2095
10.444
10.6734
10.912
11.0807
-8.00484
-8.00811
-8.0137
-8.01952
-8.02459
-8.02899
-8.03293
-8.03658
-8.04006
-8.04351
-8.04704
-8.05074
-8.05471
-8.059
-8.06367
-8.06877
-8.07435
-8.08043
-8.08705
-8.09423
-8.10199
-8.11035
-8.11932
-8.12892
-8.13916
-8.15005
-8.1616
-8.17382
-8.18671
-8.20027
-8.21451
-8.22944
-8.24504
-8.26134
-8.2783
-8.29595
-8.31427
-8.33326
-8.35291
-8.37321
-8.39413
-8.41567
-8.4378
-8.4605
-8.48372
-8.50745
-8.53163
-8.55625
-8.58125
-8.60659
-8.63224
-8.65813
-8.6842
-8.71039
-8.73661
-8.7628
-8.78885
-8.81468
-8.84018
-8.86525
-8.88977
-8.91362
-8.93668
-8.95881
-8.97988
-8.99973
-9.01821
-9.03517
-9.05044
-9.06385
-9.07522
-9.08436
-9.09109
-9.09521
-9.09651
-9.0948
-9.08985
-9.08144
-9.06937
-9.05339
-9.03328
-9.00881
-8.97974
-8.94584
-8.90686
-8.86257
-8.81274
-8.75711
-8.69548
-8.62762
-8.55331
-8.47233
-8.38445
-8.28947
-8.18721
-8.07746
-7.96008
-7.8349
-7.70179
-7.56062
-7.41132
-7.25381
-7.08804
-6.91398
-6.73165
-6.54108
-6.34233
-6.13552
-5.92076
-5.69824
-5.46815
-5.23074
-4.98627
-4.73506
-4.47745
-4.21384
-3.94463
-3.67029
-3.39128
-3.10813
-2.82136
-2.53151
-2.23917
-1.9449
-1.64928
-1.35285
-1.05621
-0.759933
-0.464565
-0.170559
0.121685
0.411796
0.699357
0.983889
1.26497
1.54224
1.81542
2.08424
2.34851
2.60804
2.8627
3.11237
3.35701
3.59656
3.83107
4.06057
4.28519
4.50505
4.72035
4.93131
5.13819
5.34125
5.54084
5.73728
5.93097
6.12229
6.31169
6.49962
6.68656
6.873
7.05944
7.24643
7.43448
7.62416
7.81602
8.01059
8.20842
8.40999
8.61572
8.82599
9.04099
9.26074
9.48501
9.71332
9.94483
10.1781
10.4123
10.6411
10.8788
11.0477
-8.01456
-8.01725
-8.02188
-8.02676
-8.03103
-8.03474
-8.03808
-8.04121
-8.04425
-8.04732
-8.05054
-8.05399
-8.05775
-8.06188
-8.06643
-8.07144
-8.07694
-8.08297
-8.08955
-8.0967
-8.10443
-8.11277
-8.12172
-8.13131
-8.14154
-8.15242
-8.16396
-8.17617
-8.18906
-8.20262
-8.21687
-8.23181
-8.24742
-8.26373
-8.28071
-8.29838
-8.31672
-8.33573
-8.35539
-8.37569
-8.3966
-8.41811
-8.44019
-8.46282
-8.48596
-8.50959
-8.53366
-8.55814
-8.58298
-8.60815
-8.6336
-8.65927
-8.6851
-8.71103
-8.73697
-8.76285
-8.78857
-8.81404
-8.83915
-8.86381
-8.88791
-8.91131
-8.93391
-8.95557
-8.97614
-8.99549
-9.01347
-9.02992
-9.04467
-9.05756
-9.06841
-9.07704
-9.08325
-9.08686
-9.08767
-9.08546
-9.08003
-9.07115
-9.05862
-9.04219
-9.02165
-8.99675
-8.96728
-8.93297
-8.89361
-8.84895
-8.79877
-8.74282
-8.68087
-8.61269
-8.53807
-8.45677
-8.36858
-8.2733
-8.17072
-8.06067
-7.94297
-7.81747
-7.68403
-7.54254
-7.39289
-7.23502
-7.06888
-6.89444
-6.71171
-6.52073
-6.32157