/*--------------------------------*- C++ -*----------------------------------*\
| =========                 |                                                 |
| \\      /  F ield         | OpenFOAM: The Open Source CFD Toolbox           |
|  \\    /   O peration     | Version:  v1712                                 |
|   \\  /    A nd           | Web:      www.OpenFOAM.com                      |
|    \\/     M anipulation  |                                                 |
\*---------------------------------------------------------------------------*/
FoamFile
{
    version     2.0;
    format      ascii;
    class       surfaceScalarField;
    location    "200";
    object      phi;
}
// * * * * * * * * * * * * * * * * * * * * * * * * * * * * * * * * * * * * * //

dimensions      [0 3 -1 0 0 0 0];
oriented        oriented;


internalField   nonuniform List<scalar> 
24170
(
3.11512e-06
7.32889e-08
3.01296e-06
1.0215e-07
2.91749e-06
9.54685e-08
2.82631e-06
9.11757e-08
2.74031e-06
8.60013e-08
2.66279e-06
7.75168e-08
2.59489e-06
6.78958e-08
2.53598e-06
5.891e-08
2.48494e-06
5.104e-08
2.44067e-06
4.42606e-08
2.40223e-06
3.84414e-08
2.36879e-06
3.34362e-08
2.33969e-06
2.90979e-08
2.31439e-06
2.53041e-08
2.29257e-06
2.18135e-08
2.27376e-06
1.88053e-08
2.25779e-06
1.59762e-08
1.26325e-08
2.24515e-06
3.46865e-06
2.1885e-08
3.48677e-06
8.40229e-08
3.49345e-06
8.87908e-08
3.49231e-06
9.23028e-08
3.48432e-06
9.39932e-08
3.47071e-06
9.11258e-08
3.45278e-06
8.58231e-08
3.43174e-06
7.99476e-08
3.40869e-06
7.40831e-08
3.38456e-06
6.83881e-08
3.36005e-06
6.29525e-08
3.33566e-06
5.7825e-08
3.31176e-06
5.29889e-08
3.28863e-06
4.84313e-08
3.26646e-06
4.39825e-08
3.24548e-06
3.97883e-08
3.22642e-06
3.50278e-08
2.87736e-08
3.21028e-06
3.66801e-06
1.63914e-08
3.68031e-06
7.17229e-08
3.69e-06
7.90953e-08
3.70002e-06
8.22821e-08
3.70913e-06
8.48834e-08
3.71622e-06
8.40333e-08
3.72118e-06
8.08581e-08
3.72423e-06
7.69022e-08
3.72559e-06
7.27216e-08
3.72551e-06
6.84587e-08
3.72426e-06
6.42022e-08
3.72207e-06
6.00212e-08
3.71912e-06
5.59295e-08
3.71564e-06
5.19156e-08
3.71175e-06
4.78718e-08
3.7078e-06
4.37363e-08
3.70381e-06
3.90111e-08
3.31334e-08
3.69945e-06
3.92495e-06
1.68264e-08
3.93556e-06
6.11114e-08
3.94312e-06
7.15355e-08
3.95014e-06
7.52569e-08
3.95682e-06
7.81994e-08
3.96261e-06
7.82391e-08
3.96757e-06
7.58946e-08
3.9719e-06
7.25729e-08
3.97569e-06
6.89314e-08
3.97899e-06
6.5152e-08
3.98187e-06
6.1322e-08
3.98438e-06
5.75082e-08
3.98658e-06
5.37278e-08
3.98854e-06
4.99614e-08
3.99029e-06
4.6118e-08
3.99193e-06
4.20916e-08
3.99331e-06
3.76264e-08
3.24255e-08
3.99402e-06
4.20772e-06
1.62298e-08
4.21609e-06
5.27465e-08
4.22226e-06
6.53651e-08
4.22774e-06
6.97723e-08
4.23318e-06
7.27559e-08
4.23821e-06
7.32105e-08
4.24274e-06
7.1367e-08
4.24686e-06
6.84487e-08
4.25065e-06
6.51393e-08
4.25416e-06
6.16471e-08
4.25741e-06
5.80618e-08
4.26047e-06
5.44499e-08
4.26336e-06
5.08337e-08
4.26613e-06
4.71951e-08
4.26878e-06
4.34621e-08
4.27133e-06
3.95462e-08
4.27365e-06
3.53067e-08
3.06135e-08
4.27546e-06
4.51042e-06
1.4894e-08
4.51713e-06
4.60416e-08
4.52283e-06
5.96567e-08
4.52796e-06
6.46385e-08
4.5331e-06
6.76175e-08
4.53796e-06
6.83511e-08
4.54239e-06
6.69373e-08
4.54644e-06
6.4395e-08
4.55019e-06
6.13859e-08
4.55369e-06
5.81401e-08
4.557e-06
5.47581e-08
4.56014e-06
5.13096e-08
4.56314e-06
4.78252e-08
4.56604e-06
4.42939e-08
4.56884e-06
4.0667e-08
4.5715e-06
3.68828e-08
4.57393e-06
3.28705e-08
2.86003e-08
4.57595e-06
4.83415e-06
1.34659e-08
4.83991e-06
4.02814e-08
4.84554e-06
5.40209e-08
4.85066e-06
5.95207e-08
4.85572e-06
6.25568e-08
4.86055e-06
6.3522e-08
4.86499e-06
6.24914e-08
4.86908e-06
6.0302e-08
4.87289e-06
5.75773e-08
4.87647e-06
5.45648e-08
4.87985e-06
5.13771e-08
4.88307e-06
4.80888e-08
4.88615e-06
4.47392e-08
4.88912e-06
4.13277e-08
4.89195e-06
3.78285e-08
4.89463e-06
3.42071e-08
4.89706e-06
3.04413e-08
2.6558e-08
4.8991e-06
5.18096e-06
1.20903e-08
5.18605e-06
3.51819e-08
5.19158e-06
4.84923e-08
5.19671e-06
5.43871e-08
5.20177e-06
5.74979e-08
5.20665e-06
5.86432e-08
5.21119e-06
5.7946e-08
5.21541e-06
5.60863e-08
5.21934e-06
5.36373e-08
5.22305e-06
5.08574e-08
5.22656e-06
4.78692e-08
5.22989e-06
4.47522e-08
5.23308e-06
4.15539e-08
5.23612e-06
3.82861e-08
5.239e-06
3.49433e-08
5.24169e-06
3.15152e-08
5.24412e-06
2.80101e-08
2.44776e-08
5.2462e-06
5.55268e-06
1.07516e-08
5.55721e-06
3.06518e-08
5.56252e-06
4.3177e-08
5.56764e-06
4.92676e-08
5.57271e-06
5.2423e-08
5.57767e-06
5.36896e-08
5.58234e-06
5.32719e-08
5.58671e-06
5.17157e-08
5.59081e-06
4.95333e-08
5.59468e-06
4.6987e-08
5.59834e-06
4.42065e-08
5.60182e-06
4.12755e-08
5.60512e-06
3.82489e-08
5.60826e-06
3.51509e-08
5.61121e-06
3.19925e-08
5.61394e-06
2.87827e-08
5.6164e-06
2.55462e-08
2.23423e-08
5.61854e-06
5.95107e-06
9.45605e-09
5.95511e-06
2.661e-08
5.96016e-06
3.81223e-08
5.96524e-06
4.41927e-08
5.97032e-06
4.73429e-08
5.97533e-06
4.86761e-08
5.98012e-06
4.84799e-08
5.98464e-06
4.71932e-08
5.98891e-06
4.52625e-08
5.99295e-06
4.29462e-08
5.99677e-06
4.0379e-08
6.0004e-06
3.76475e-08
6.00384e-06
3.48121e-08
6.00708e-06
3.19078e-08
6.01011e-06
2.8958e-08
6.01291e-06
2.59853e-08
6.01543e-06
2.30224e-08
2.01295e-08
6.01764e-06
6.37804e-06
8.22411e-09
6.38168e-06
2.29764e-08
6.38646e-06
3.33404e-08
6.39146e-06
3.91915e-08
6.39652e-06
4.22777e-08
6.40157e-06
4.36295e-08
6.40645e-06
4.35957e-08
6.4111e-06
4.25392e-08
6.41552e-06
4.08407e-08
6.41972e-06
3.87469e-08
6.4237e-06
3.63948e-08
6.42748e-06
3.38727e-08
6.43104e-06
3.12442e-08
6.4344e-06
2.85527e-08
6.43753e-06
2.58301e-08
6.4404e-06
2.31073e-08
6.44301e-06
2.0419e-08
1.78232e-08
6.44531e-06
5.74182e-06
7.2346e-09
5.74462e-06
2.01744e-08
5.74846e-06
2.95077e-08
5.75261e-06
3.50353e-08
5.75687e-06
3.80178e-08
5.76114e-06
3.93537e-08
5.76532e-06
3.94137e-08
5.76934e-06
3.85196e-08
5.77318e-06
3.70012e-08
5.77684e-06
3.5089e-08
5.78031e-06
3.29184e-08
5.78361e-06
3.05785e-08
5.78671e-06
2.81347e-08
5.78963e-06
2.56339e-08
5.79235e-06
2.31136e-08
5.79485e-06
2.06074e-08
5.79712e-06
1.81503e-08
1.57964e-08
5.79914e-06
6.99922e-06
6.17302e-09
7.00219e-06
1.7198e-08
7.00635e-06
2.53472e-08
7.01099e-06
3.0391e-08
7.01583e-06
3.31796e-08
7.02073e-06
3.44519e-08
7.02557e-06
3.45763e-08
7.03025e-06
3.38336e-08
7.03475e-06
3.25015e-08
7.03905e-06
3.07879e-08
7.04314e-06
2.88242e-08
7.04702e-06
2.66975e-08
7.05068e-06
2.44733e-08
7.05412e-06
2.22011e-08
7.05731e-06
1.992e-08
7.06025e-06
1.76661e-08
7.06293e-06
1.54703e-08
1.33845e-08
7.06534e-06
8.53197e-06
5.04879e-09
8.53509e-06
1.40746e-08
8.53955e-06
2.08888e-08
8.54467e-06
2.52692e-08
8.5501e-06
2.77473e-08
8.55566e-06
2.88895e-08
8.5612e-06
2.90329e-08
8.56662e-06
2.84186e-08
8.57185e-06
2.72713e-08
8.57686e-06
2.57711e-08
8.58165e-06
2.40386e-08
8.58619e-06
2.21579e-08
8.59047e-06
2.01908e-08
8.59448e-06
1.81866e-08
8.59822e-06
1.61842e-08
8.60166e-06
1.4218e-08
8.60482e-06
1.23155e-08
1.05214e-08
8.60768e-06
1.04004e-05
3.87292e-09
1.04036e-05
1.08262e-08
1.04084e-05
1.61577e-08
1.0414e-05
1.96839e-08
1.042e-05
2.17108e-08
1.04262e-05
2.26352e-08
1.04325e-05
2.2737e-08
1.04387e-05
2.22137e-08
1.04448e-05
2.12404e-08
1.04506e-05
1.99618e-08
1.04561e-05
1.8484e-08
1.04614e-05
1.68806e-08
1.04664e-05
1.5209e-08
1.04711e-05
1.35126e-08
1.04754e-05
1.18284e-08
1.04795e-05
1.01855e-08
1.04832e-05
8.60738e-09
7.13111e-09
1.04865e-05
1.2678e-05
2.65334e-09
1.26814e-05
7.45038e-09
1.26864e-05
1.11562e-08
1.26924e-05
1.3636e-08
1.26991e-05
1.50505e-08
1.27061e-05
1.56483e-08
1.27132e-05
1.5632e-08
1.27202e-05
1.51502e-08
1.27272e-05
1.43284e-08
1.27338e-05
1.32739e-08
1.27403e-05
1.20683e-08
1.27464e-05
1.07724e-08
1.27521e-05
9.43147e-09
1.27576e-05
8.08259e-09
1.27626e-05
6.75397e-09
1.27674e-05
5.47052e-09
1.27717e-05
4.24739e-09
3.11693e-09
1.27757e-05
1.54545e-05
1.38145e-09
1.5458e-05
3.90462e-09
1.54633e-05
5.82944e-09
1.54699e-05
7.06976e-09
1.54772e-05
7.69785e-09
1.5485e-05
7.84262e-09
1.54931e-05
7.62049e-09
1.55011e-05
7.12162e-09
1.5509e-05
6.42191e-09
1.55167e-05
5.58685e-09
1.55241e-05
4.66842e-09
1.55311e-05
3.70624e-09
1.55378e-05
2.73064e-09
1.55441e-05
1.76593e-09
1.55501e-05
8.312e-10
1.55556e-05
-5.78211e-11
1.55607e-05
-8.91936e-10
-1.64756e-09
1.55655e-05
1.8839e-05
1.8333e-11
1.88428e-05
6.43149e-11
1.88487e-05
6.40907e-13
1.88559e-05
-2.11042e-10
1.88642e-05
-5.52179e-10
1.8873e-05
-9.93925e-10
1.88822e-05
-1.51196e-09
1.88914e-05
-2.08423e-09
1.89005e-05
-2.68839e-09
1.89094e-05
-3.30491e-09
1.89179e-05
-3.91823e-09
1.89262e-05
-4.51615e-09
1.8934e-05
-5.0886e-09
1.89414e-05
-5.62729e-09
1.89483e-05
-6.12564e-09
1.89548e-05
-6.5781e-09
1.89609e-05
-6.98289e-09
-7.32479e-09
1.89666e-05
2.29649e-05
-1.53715e-09
2.29693e-05
-4.36451e-09
2.29761e-05
-6.76536e-09
2.29846e-05
-8.70988e-09
2.29942e-05
-1.02154e-08
2.30046e-05
-1.13675e-08
2.30154e-05
-1.22565e-08
2.30262e-05
-1.29357e-08
2.3037e-05
-1.34431e-08
2.30475e-05
-1.38128e-08
2.30576e-05
-1.40765e-08
2.30674e-05
-1.42553e-08
2.30766e-05
-1.43652e-08
2.30854e-05
-1.44165e-08
2.30937e-05
-1.44186e-08
2.31015e-05
-1.43767e-08
2.31088e-05
-1.42977e-08
-1.41746e-08
2.31157e-05
1.68119e-05
-2.74021e-09
1.68153e-05
-7.77031e-09
1.68205e-05
-1.19835e-08
1.6827e-05
-1.52269e-08
1.68344e-05
-1.75428e-08
1.68422e-05
-1.91662e-08
1.68502e-05
-2.02891e-08
1.68583e-05
-2.10136e-08
1.68662e-05
-2.14149e-08
1.6874e-05
-2.15753e-08
1.68815e-05
-2.15584e-08
1.68886e-05
-2.14127e-08
1.68954e-05
-2.11692e-08
1.69019e-05
-2.08556e-08
1.69079e-05
-2.04887e-08
1.69136e-05
-2.00842e-08
1.6919e-05
-1.96509e-08
-1.91899e-08
1.6924e-05
1.46357e-05
-3.87392e-09
1.4639e-05
-1.10341e-08
1.4644e-05
-1.70268e-08
1.46502e-05
-2.14279e-08
1.4657e-05
-2.43821e-08
1.46642e-05
-2.63618e-08
1.46716e-05
-2.76434e-08
1.46789e-05
-2.83448e-08
1.46861e-05
-2.85945e-08
1.4693e-05
-2.85223e-08
1.46997e-05
-2.82248e-08
1.47061e-05
-2.77648e-08
1.47121e-05
-2.71908e-08
1.47178e-05
-2.65398e-08
1.47231e-05
-2.58399e-08
1.47281e-05
-2.511e-08
1.47328e-05
-2.43655e-08
-2.36081e-08
1.47373e-05
1.27412e-05
-4.89866e-09
1.27444e-05
-1.42788e-08
1.27495e-05
-2.21467e-08
1.27556e-05
-2.7479e-08
1.2762e-05
-3.08493e-08
1.27688e-05
-3.31038e-08
1.27756e-05
-3.44873e-08
1.27824e-05
-3.51004e-08
1.27889e-05
-3.51441e-08
1.27952e-05
-3.48097e-08
1.28012e-05
-3.42166e-08
1.28069e-05
-3.3441e-08
1.28122e-05
-3.25447e-08
1.28173e-05
-3.1574e-08
1.2822e-05
-3.05642e-08
1.28264e-05
-2.95359e-08
1.28305e-05
-2.85061e-08
-2.74769e-08
1.28344e-05
1.10917e-05
-5.68075e-09
1.1095e-05
-1.75475e-08
1.11004e-05
-2.75514e-08
1.11064e-05
-3.34685e-08
1.11125e-05
-3.70031e-08
1.11189e-05
-3.94457e-08
1.11252e-05
-4.08553e-08
1.11314e-05
-4.13168e-08
1.11374e-05
-4.11266e-08
1.11431e-05
-4.05214e-08
1.11485e-05
-3.96298e-08
1.11536e-05
-3.85419e-08
1.11584e-05
-3.73314e-08
1.11629e-05
-3.60574e-08
1.11671e-05
-3.47567e-08
1.1171e-05
-3.34568e-08
1.11747e-05
-3.21746e-08
-3.09193e-08
1.11781e-05
9.65564e-06
-6.10656e-09
9.65904e-06
-2.09529e-08
9.66464e-06
-3.31513e-08
9.67044e-06
-3.92663e-08
9.67636e-06
-4.29226e-08
9.68242e-06
-4.55059e-08
9.68836e-06
-4.68049e-08
9.69407e-06
-4.70195e-08
9.6995e-06
-4.65641e-08
9.70467e-06
-4.56857e-08
9.70954e-06
-4.45049e-08
9.71412e-06
-4.31198e-08
9.7184e-06
-4.16172e-08
9.7224e-06
-4.00622e-08
9.72614e-06
-3.84973e-08
9.72963e-06
-3.69486e-08
9.73289e-06
-3.54292e-08
-3.39336e-08
9.7359e-06
8.40494e-06
-5.69835e-09
8.40932e-06
-2.53331e-08
8.41474e-06
-3.85751e-08
8.41986e-06
-4.43815e-08
8.42543e-06
-4.84997e-08
8.4313e-06
-5.13749e-08
8.43703e-06
-5.25296e-08
8.44246e-06
-5.24535e-08
8.4476e-06
-5.17017e-08
8.45243e-06
-5.0523e-08
8.45696e-06
-4.90341e-08
8.46118e-06
-4.7344e-08
8.46511e-06
-4.55493e-08
8.46877e-06
-4.37207e-08
8.47217e-06
-4.19027e-08
8.47535e-06
-4.01244e-08
8.47833e-06
-3.841e-08
-3.67691e-08
8.48116e-06
7.31365e-06
-2.06088e-09
7.32071e-06
-3.23963e-08
7.32651e-06
-4.43815e-08
7.33133e-06
-4.91944e-08
7.33671e-06
-5.38845e-08
7.34237e-06
-5.70418e-08
7.34791e-06
-5.80691e-08
7.35323e-06
-5.77689e-08
7.35829e-06
-5.67676e-08
7.36306e-06
-5.52977e-08
7.36752e-06
-5.34927e-08
7.37166e-06
-5.14841e-08
7.37549e-06
-4.93832e-08
7.37904e-06
-4.72663e-08
7.38232e-06
-4.51832e-08
7.38536e-06
-4.31637e-08
7.38816e-06
-4.12185e-08
-3.92965e-08
7.39069e-06
6.36047e-06
7.53622e-09
6.3703e-06
-4.2227e-08
6.37818e-06
-5.22697e-08
6.38525e-06
-5.62627e-08
6.39238e-06
-6.10103e-08
6.39899e-06
-6.36603e-08
6.40499e-06
-6.40625e-08
6.41054e-06
-6.33214e-08
6.41574e-06
-6.19721e-08
6.42059e-06
-6.01493e-08
6.42508e-06
-5.79798e-08
6.4292e-06
-5.5604e-08
6.43296e-06
-5.31508e-08
6.43639e-06
-5.06967e-08
6.43951e-06
-4.82997e-08
6.44234e-06
-4.60011e-08
6.44496e-06
-4.38321e-08
-4.18208e-08
6.44748e-06
5.53917e-06
1.38303e-08
5.54752e-06
-5.05799e-08
5.55587e-06
-6.06164e-08
5.56612e-06
-6.65201e-08
5.57732e-06
-7.22144e-08
5.58782e-06
-7.41599e-08
5.59704e-06
-7.32834e-08
5.605e-06
-7.12834e-08
5.61177e-06
-6.87451e-08
5.61743e-06
-6.58092e-08
5.62205e-06
-6.2599e-08
5.62571e-06
-5.92695e-08
5.62852e-06
-5.5956e-08
5.63055e-06
-5.27331e-08
5.63191e-06
-4.96523e-08
5.63269e-06
-4.67826e-08
5.63299e-06
-4.41348e-08
-4.18007e-08
5.63297e-06
4.87157e-06
-3.01351e-08
4.88648e-06
-6.54866e-08
4.89722e-06
-7.13603e-08
4.90599e-06
-7.52992e-08
4.91304e-06
-7.92629e-08
4.91732e-06
-7.84427e-08
4.91816e-06
-7.41189e-08
4.91542e-06
-6.85531e-08
4.90944e-06
-6.2762e-08
4.90072e-06
-5.70875e-08
4.88982e-06
-5.16996e-08
4.87724e-06
-4.66972e-08
4.86345e-06
-4.21628e-08
4.8488e-06
-3.80883e-08
4.83361e-06
-3.44596e-08
4.81813e-06
-3.13005e-08
4.80262e-06
-2.86262e-08
-2.6932e-08
4.78774e-06
4.17254e-06
4.10705e-06
4.03569e-06
3.96039e-06
3.88113e-06
3.80269e-06
3.72857e-06
3.66002e-06
3.59725e-06
3.54017e-06
3.48847e-06
3.44177e-06
3.39961e-06
3.36152e-06
3.32706e-06
3.29576e-06
3.26713e-06
3.2402e-06
1.23654e-08
-1.23995e-08
2.97506e-08
-1.74508e-08
4.57517e-08
-1.60372e-08
5.79646e-08
-1.22697e-08
6.55212e-08
-7.58365e-09
6.8236e-08
-2.77254e-09
6.65436e-08
1.67173e-09
6.10789e-08
5.40269e-09
5.27751e-08
8.28475e-09
4.23039e-08
1.04019e-08
3.03449e-08
1.19403e-08
1.71815e-08
1.30844e-08
3.19485e-09
1.39694e-08
-1.17052e-08
1.48169e-08
-2.74921e-08
1.57781e-08
-4.4368e-08
1.67969e-08
-6.22804e-08
1.79145e-08
-8.1501e-08
1.91452e-08
-1.01989e-07
2.04915e-08
-1.23996e-07
2.19316e-08
-1.47442e-07
2.34494e-08
-1.72531e-07
2.50129e-08
-1.99136e-07
2.66016e-08
-2.27395e-07
2.81806e-08
-2.57134e-07
2.97298e-08
-2.8843e-07
3.12198e-08
-3.21076e-07
3.2638e-08
-3.55111e-07
3.39621e-08
-3.90304e-07
3.5185e-08
-4.26661e-07
3.62894e-08
-4.63935e-07
3.72744e-08
-5.02127e-07
3.81312e-08
-5.40994e-07
3.88699e-08
-5.80535e-07
3.94879e-08
-6.20519e-07
3.99982e-08
-6.60965e-07
4.0399e-08
-7.01654e-07
4.07067e-08
-7.42622e-07
4.09221e-08
-7.83671e-07
4.10664e-08
-8.24863e-07
4.11463e-08
-8.66039e-07
4.11918e-08
-9.07303e-07
4.12188e-08
-9.48541e-07
4.12537e-08
-9.89868e-07
4.12856e-08
-1.03117e-06
4.13195e-08
-1.07255e-06
4.13436e-08
-1.1139e-06
4.13675e-08
-1.15532e-06
4.13799e-08
-1.19669e-06
4.13903e-08
-1.23812e-06
4.13872e-08
-1.27949e-06
4.1381e-08
-1.3209e-06
4.1359e-08
-1.36223e-06
4.13309e-08
-1.40356e-06
4.12853e-08
-1.44479e-06
4.12313e-08
-1.48599e-06
4.11553e-08
-1.52706e-06
4.10663e-08
-1.56806e-06
4.09521e-08
-1.60887e-06
4.08214e-08
-1.64958e-06
4.06603e-08
-1.69005e-06
4.0478e-08
-1.73035e-06
4.0262e-08
-1.77036e-06
4.00211e-08
-1.81013e-06
3.97413e-08
-1.84955e-06
3.94324e-08
-1.88866e-06
3.90806e-08
-1.92734e-06
3.86961e-08
-1.96564e-06
3.82653e-08
-2.00342e-06
3.77989e-08
-2.04073e-06
3.72831e-08
-2.07744e-06
3.6729e-08
-2.11359e-06
3.61229e-08
-2.14904e-06
3.54757e-08
-2.18384e-06
3.47736e-08
-2.21786e-06
3.40286e-08
-2.25112e-06
3.32268e-08
-2.28349e-06
3.238e-08
-2.315e-06
3.14768e-08
-2.34552e-06
3.05282e-08
-2.37506e-06
2.95208e-08
-2.40352e-06
2.84658e-08
-2.43089e-06
2.73517e-08
-2.45705e-06
2.61894e-08
-2.48203e-06
2.49655e-08
-2.5057e-06
2.36916e-08
-2.52807e-06
2.23566e-08
-2.54901e-06
2.09706e-08
-2.56852e-06
1.95215e-08
-2.58648e-06
1.80141e-08
-2.60285e-06
1.64432e-08
-2.6176e-06
1.48016e-08
-2.63065e-06
1.30834e-08
-2.64192e-06
1.12824e-08
-2.6513e-06
9.388e-09
-2.65867e-06
7.38528e-09
-2.66392e-06
5.25668e-09
-2.66692e-06
3.0038e-09
-2.66761e-06
6.92877e-10
-2.66615e-06
-1.45888e-09
-2.66274e-06
-3.41165e-09
-2.65743e-06
-5.31243e-09
-2.65023e-06
-7.20703e-09
-2.64112e-06
-9.1123e-09
-2.6301e-06
-1.10329e-08
-2.61714e-06
-1.29645e-08
-2.60224e-06
-1.49064e-08
-2.58538e-06
-1.68518e-08
-2.56657e-06
-1.87988e-08
-2.54581e-06
-2.07414e-08
-2.52311e-06
-2.26758e-08
-2.49848e-06
-2.45968e-08
-2.47194e-06
-2.64989e-08
-2.44352e-06
-2.83777e-08
-2.41326e-06
-3.02257e-08
-2.38117e-06
-3.20399e-08
-2.34731e-06
-3.38112e-08
-2.31172e-06
-3.5538e-08
-2.27447e-06
-3.721e-08
-2.2356e-06
-3.88268e-08
-2.19518e-06
-4.03765e-08
-2.15327e-06
-4.18581e-08
-2.10994e-06
-4.3259e-08
-2.06528e-06
-4.45835e-08
-2.01938e-06
-4.58181e-08
-1.97234e-06
-4.69751e-08
-1.92424e-06
-4.80447e-08
-1.87518e-06
-4.90433e-08
-1.82522e-06
-4.9935e-08
-1.77451e-06
-5.07288e-08
-1.72311e-06
-5.14215e-08
-1.67115e-06
-5.20251e-08
-1.61871e-06
-5.25197e-08
-1.5659e-06
-5.29164e-08
-1.51282e-06
-5.32036e-08
-1.45958e-06
-5.3389e-08
-1.40627e-06
-5.34671e-08
-1.353e-06
-5.34414e-08
-1.29984e-06
-5.33129e-08
-1.2469e-06
-5.30792e-08
-1.19424e-06
-5.2753e-08
-1.14197e-06
-5.23349e-08
-1.09016e-06
-5.18425e-08
-1.03891e-06
-5.12745e-08
-9.88262e-07
-5.06465e-08
-9.38284e-07
-4.9952e-08
-8.89032e-07
-4.92115e-08
-8.40542e-07
-4.84181e-08
-7.92856e-07
-4.75961e-08
-7.45992e-07
-4.67384e-08
-6.99969e-07
-4.58727e-08
-6.54786e-07
-4.49912e-08
-6.10443e-07
-4.41225e-08
-5.6692e-07
-4.32593e-08
-5.24192e-07
-4.24341e-08
-4.82217e-07
-4.16381e-08
-4.4095e-07
-4.09022e-08
-4.00327e-07
-4.02198e-08
-3.60274e-07
-3.96241e-08
-3.2071e-07
-3.91035e-08
-2.81536e-07
-3.86903e-08
-2.42645e-07
-3.83828e-08
-2.03914e-07
-3.82004e-08
-1.65235e-07
-3.81314e-08
-1.26407e-07
-3.82614e-08
-8.72995e-08
-3.85335e-08
-4.78473e-08
-3.88645e-08
-8.07963e-09
-3.91833e-08
3.18119e-08
-3.92988e-08
7.17804e-08
-3.94004e-08
1.12385e-07
-4.00429e-08
1.54218e-07
-4.13085e-08
1.97773e-07
-4.30346e-08
2.43339e-07
-4.50886e-08
2.91132e-07
-4.73231e-08
3.41126e-07
-4.95754e-08
3.93038e-07
-5.15072e-08
4.45931e-07
-5.25493e-08
4.97267e-07
-5.10184e-08
5.41712e-07
-4.4193e-08
-1.91865e-09
5.43864e-07
1.40536e-08
-2.64865e-08
2.30565e-08
-2.64998e-08
2.65169e-08
-1.95218e-08
2.58973e-08
-1.16768e-08
2.22075e-08
-3.90985e-09
1.59633e-08
3.44795e-09
7.45555e-09
1.01657e-08
-3.25175e-09
1.60865e-08
-1.61255e-08
2.1145e-08
-3.1131e-08
2.5384e-08
-4.81392e-08
2.89353e-08
-6.70523e-08
3.19743e-08
-8.77733e-08
3.46782e-08
-1.10187e-07
3.72078e-08
-1.34109e-07
3.96896e-08
-1.59536e-07
4.22019e-08
-1.8642e-07
4.47902e-08
-2.14763e-07
4.74672e-08
-2.44499e-07
5.02207e-08
-2.75611e-07
5.30208e-08
-3.07999e-07
5.58302e-08
-3.41615e-07
5.86061e-08
-3.76331e-07
6.13076e-08
-4.12072e-07
6.38952e-08
-4.48689e-07
6.63356e-08
-4.86094e-07
6.86001e-08
-5.24137e-07
7.06687e-08
-5.6273e-07
7.25282e-08
-6.0173e-07
7.41736e-08
-6.41067e-07
7.56015e-08
-6.80616e-07
7.68136e-08
-7.20325e-07
7.78171e-08
-7.60091e-07
7.86274e-08
-7.99883e-07
7.92604e-08
-8.39625e-07
7.97358e-08
-8.79315e-07
8.00716e-08
-9.189e-07
8.02889e-08
-9.584e-07
8.04059e-08
-9.97781e-07
8.04442e-08
-1.03707e-06
8.04232e-08
-1.07625e-06
8.03651e-08
-1.11533e-06
8.02854e-08
-1.15428e-06
8.01958e-08
-1.1931e-06
8.00968e-08
-1.23177e-06
7.99903e-08
-1.27032e-06
7.98742e-08
-1.3087e-06
7.975e-08
-1.34695e-06
7.9614e-08
-1.38502e-06
7.94671e-08
-1.42295e-06
7.93043e-08
-1.4607e-06
7.91256e-08
-1.49828e-06
7.8926e-08
-1.53567e-06
7.87053e-08
-1.57286e-06
7.84578e-08
-1.60981e-06
7.81822e-08
-1.64655e-06
7.78723e-08
-1.68302e-06
7.75273e-08
-1.71923e-06
7.71406e-08
-1.75512e-06
7.67108e-08
-1.79071e-06
7.62313e-08
-1.82594e-06
7.57015e-08
-1.86081e-06
7.51148e-08
-1.89527e-06
7.44704e-08
-1.9293e-06
7.37616e-08
-1.96286e-06
7.29881e-08
-1.99593e-06
7.21433e-08
-2.02846e-06
7.12278e-08
-2.06044e-06
7.02354e-08
-2.09181e-06
6.91671e-08
-2.12255e-06
6.80169e-08
-2.15261e-06
6.67861e-08
-2.18196e-06
6.54688e-08
-2.21055e-06
6.40667e-08
-2.23835e-06
6.25741e-08
-2.26532e-06
6.09932e-08
-2.29142e-06
5.93188e-08
-2.3166e-06
5.75541e-08
-2.34083e-06
5.56946e-08
-2.36404e-06
5.37426e-08
-2.38622e-06
5.16933e-08
-2.4073e-06
4.95498e-08
-2.42726e-06
4.73074e-08
-2.44604e-06
4.49691e-08
-2.4636e-06
4.25302e-08
-2.4799e-06
3.99946e-08
-2.4949e-06
3.73582e-08
-2.50854e-06
3.46244e-08
-2.5208e-06
3.17888e-08
-2.5316e-06
2.88528e-08
-2.54093e-06
2.58136e-08
-2.54877e-06
2.26687e-08
-2.55508e-06
1.94176e-08
-2.55985e-06
1.60602e-08
-2.56306e-06
1.26011e-08
-2.56472e-06
9.04928e-09
-2.56489e-06
5.43014e-09
-2.56367e-06
1.78519e-09
-2.56114e-06
-1.84085e-09
-2.55714e-06
-5.46114e-09
-2.55144e-06
-9.11455e-09
-2.54395e-06
-1.28068e-08
-2.53463e-06
-1.65345e-08
-2.52345e-06
-2.02973e-08
-2.5104e-06
-2.40914e-08
-2.49546e-06
-2.79096e-08
-2.47863e-06
-3.17451e-08
-2.45989e-06
-3.55888e-08
-2.43924e-06
-3.94329e-08
-2.4167e-06
-4.32675e-08
-2.39228e-06
-4.70839e-08
-2.36598e-06
-5.08714e-08
-2.33784e-06
-5.46201e-08
-2.30787e-06
-5.83187e-08
-2.27611e-06
-6.19564e-08
-2.2426e-06
-6.55214e-08
-2.20738e-06
-6.90026e-08
-2.1705e-06
-7.23884e-08
-2.13201e-06
-7.56679e-08
-2.09198e-06
-7.88295e-08
-2.05048e-06
-8.18599e-08
-2.00755e-06
-8.47481e-08
-1.96328e-06
-8.7481e-08
-1.91776e-06
-9.00526e-08
-1.87108e-06
-9.24531e-08
-1.82333e-06
-9.46829e-08
-1.77461e-06
-9.67402e-08
-1.72499e-06
-9.86349e-08
-1.67459e-06
-1.00335e-07
-1.62348e-06
-1.01833e-07
-1.57179e-06
-1.03137e-07
-1.51959e-06
-1.04252e-07
-1.46699e-06
-1.05162e-07
-1.41409e-06
-1.05871e-07
-1.36099e-06
-1.06371e-07
-1.3078e-06
-1.06667e-07
-1.25459e-06
-1.06755e-07
-1.20148e-06
-1.06642e-07
-1.14855e-06
-1.06327e-07
-1.09588e-06
-1.05821e-07
-1.04354e-06
-1.05128e-07
-9.91637e-07
-1.0427e-07
-9.40235e-07
-1.03257e-07
-8.89409e-07
-1.0211e-07
-8.39214e-07
-1.00834e-07
-7.89705e-07
-9.94504e-08
-7.4092e-07
-9.79649e-08
-6.92899e-07
-9.6405e-08
-6.45661e-07
-9.47753e-08
-5.99227e-07
-9.31093e-08
-5.53596e-07
-9.14133e-08
-5.08765e-07
-8.97243e-08
-4.64712e-07
-8.80459e-08
-4.21415e-07
-8.64203e-08
-3.78826e-07
-8.48532e-08
-3.36899e-07
-8.33895e-08
-2.95563e-07
-8.20295e-08
-2.54746e-07
-8.08245e-08
-2.14349e-07
-7.97769e-08
-1.74275e-07
-7.8933e-08
-1.34396e-07
-7.82943e-08
-9.45828e-08
-7.79229e-08
-5.468e-08
-7.7803e-08
-1.4547e-08
-7.79693e-08
2.59115e-08
-7.84015e-08
6.6798e-08
-7.9112e-08
1.08401e-07
-8.01444e-08
1.51057e-07
-8.15308e-08
1.95213e-07
-8.31358e-08
2.412e-07
-8.50838e-08
2.89119e-07
-8.76526e-08
3.39061e-07
-9.09578e-08
3.91208e-07
-9.48867e-08
4.45668e-07
-9.92715e-08
5.02463e-07
-1.03843e-07
5.61391e-07
-1.0825e-07
6.22002e-07
-1.11876e-07
6.83178e-07
-1.13508e-07
7.43316e-07
-1.10961e-07
7.9715e-07
-9.78641e-08
-5.27045e-08
8.48081e-07
5.29434e-09
-3.18067e-08
3.57977e-09
-2.48169e-08
-1.97489e-09
-1.39829e-08
-1.00318e-08
-3.63637e-09
-1.99507e-08
5.99919e-09
-3.14482e-08
1.49319e-08
-4.4424e-08
2.3133e-08
-5.89131e-08
3.05626e-08
-7.49841e-08
3.72079e-08
-9.27217e-08
4.31084e-08
-1.12153e-07
4.83581e-08
-1.33279e-07
5.30871e-08
-1.56044e-07
5.74361e-08
-1.80384e-07
6.15342e-08
-2.06187e-07
6.54853e-08
-2.33358e-07
6.9361e-08
-2.61773e-07
7.31996e-08
-2.91328e-07
7.70099e-08
-3.2189e-07
8.07777e-08
-3.53355e-07
8.44736e-08
-3.8559e-07
8.80606e-08
-4.18496e-07
9.14994e-08
-4.51947e-07
9.47528e-08
-4.85854e-07
9.77891e-08
-5.20108e-07
1.00583e-07
-5.54638e-07
1.03117e-07
-5.89355e-07
1.05378e-07
-6.24203e-07
1.07362e-07
-6.59107e-07
1.0907e-07
-6.94035e-07
1.10515e-07
-7.28943e-07
1.11713e-07
-7.63824e-07
1.12685e-07
-7.98654e-07
1.1345e-07
-8.33439e-07
1.14032e-07
-8.68162e-07
1.14453e-07
-9.02839e-07
1.14737e-07
-9.3746e-07
1.14905e-07
-9.72044e-07
1.14978e-07
-1.00658e-06
1.14978e-07
-1.04109e-06
1.1492e-07
-1.07555e-06
1.14822e-07
-1.10997e-06
1.14697e-07
-1.14433e-06
1.14551e-07
-1.17863e-06
1.14389e-07
-1.21286e-06
1.14212e-07
-1.24701e-06
1.14021e-07
-1.28108e-06
1.13815e-07
-1.31506e-06
1.13592e-07
-1.34895e-06
1.1335e-07
-1.38273e-06
1.13085e-07
-1.4164e-06
1.12794e-07
-1.44996e-06
1.12472e-07
-1.48337e-06
1.12115e-07
-1.51664e-06
1.11719e-07
-1.54974e-06
1.11279e-07
-1.58267e-06
1.10789e-07
-1.61539e-06
1.10244e-07
-1.6479e-06
1.09639e-07
-1.68017e-06
1.08969e-07
-1.71217e-06
1.08228e-07
-1.74389e-06
1.07411e-07
-1.7753e-06
1.06513e-07
-1.80636e-06
1.05529e-07
-1.83706e-06
1.04454e-07
-1.86736e-06
1.03283e-07
-1.89724e-06
1.02012e-07
-1.92665e-06
1.00637e-07
-1.95558e-06
9.9154e-08
-1.98397e-06
9.75593e-08
-2.01181e-06
9.5849e-08
-2.03905e-06
9.40205e-08
-2.06565e-06
9.207e-08
-2.09158e-06
8.99955e-08
-2.1168e-06
8.77934e-08
-2.14127e-06
8.54621e-08
-2.16495e-06
8.29992e-08
-2.18781e-06
8.04039e-08
-2.20979e-06
7.76739e-08
-2.23085e-06
7.48085e-08
-2.25097e-06
7.18054e-08
-2.27008e-06
6.86646e-08
-2.28816e-06
6.53842e-08
-2.30515e-06
6.19644e-08
-2.32102e-06
5.84037e-08
-2.33573e-06
5.47032e-08
-2.34923e-06
5.08622e-08
-2.36148e-06
4.68821e-08
-2.37245e-06
4.27627e-08
-2.38208e-06
3.85049e-08
-2.39035e-06
3.411e-08
-2.39724e-06
2.95786e-08
-2.40273e-06
2.49141e-08
-2.40679e-06
2.01231e-08
-2.4094e-06
1.52149e-08
-2.41056e-06
1.02055e-08
-2.41025e-06
5.11695e-09
-2.40844e-06
-2.6771e-11
-2.40507e-06
-5.21692e-09
-2.40006e-06
-1.04758e-08
-2.39336e-06
-1.58215e-08
-2.38492e-06
-2.12461e-08
-2.37473e-06
-2.67387e-08
-2.36274e-06
-3.22905e-08
-2.34895e-06
-3.78901e-08
-2.33334e-06
-4.35273e-08
-2.31589e-06
-4.91889e-08
-2.29662e-06
-5.4863e-08
-2.27551e-06
-6.0536e-08
-2.25257e-06
-6.61945e-08
-2.22782e-06
-7.18238e-08
-2.20127e-06
-7.7409e-08
-2.17294e-06
-8.29345e-08
-2.14285e-06
-8.83836e-08
-2.11105e-06
-9.37403e-08
-2.07756e-06
-9.89868e-08
-2.04244e-06
-1.04107e-07
-2.00572e-06
-1.09082e-07
-1.96747e-06
-1.13898e-07
-1.92775e-06
-1.18535e-07
-1.88661e-06
-1.22976e-07
-1.84413e-06
-1.27202e-07
-1.80038e-06
-1.31199e-07
-1.75544e-06
-1.34952e-07
-1.70941e-06
-1.38453e-07
-1.66237e-06
-1.41692e-07
-1.61442e-06
-1.4467e-07
-1.56564e-06
-1.47391e-07
-1.51614e-06
-1.49836e-07
-1.46599e-06
-1.5198e-07
-1.4153e-06
-1.53837e-07
-1.36417e-06
-1.55409e-07
-1.31267e-06
-1.56685e-07
-1.26092e-06
-1.57661e-07
-1.20901e-06
-1.58335e-07
-1.15702e-06
-1.58707e-07
-1.10506e-06
-1.58779e-07
-1.0532e-06
-1.58557e-07
-1.00154e-06
-1.58045e-07
-9.50147e-07
-1.57256e-07
-8.99101e-07
-1.56204e-07
-8.48476e-07
-1.54911e-07
-7.98345e-07
-1.534e-07
-7.48766e-07
-1.51692e-07
-6.99794e-07
-1.49807e-07
-6.51468e-07
-1.47767e-07
-6.03827e-07
-1.45595e-07
-5.56892e-07
-1.43318e-07
-5.10685e-07
-1.4096e-07
-4.65206e-07
-1.38554e-07
-4.20456e-07
-1.36128e-07
-3.76414e-07
-1.33718e-07
-3.3306e-07
-1.31352e-07
-2.90349e-07
-1.29069e-07
-2.48237e-07
-1.26903e-07
-2.06657e-07
-1.24895e-07
-1.6554e-07
-1.23075e-07
-1.24792e-07
-1.21489e-07
-8.43168e-08
-1.20174e-07
-4.39931e-08
-1.19168e-07
-3.70494e-09
-1.185e-07
3.66752e-08
-1.18213e-07
7.72894e-08
-1.18336e-07
1.18337e-07
-1.1893e-07
1.6003e-07
-1.20016e-07
2.0261e-07
-1.2161e-07
2.463e-07
-1.23762e-07
2.91348e-07
-1.26503e-07
3.38079e-07
-1.29799e-07
3.86793e-07
-1.33728e-07
4.37647e-07
-1.38443e-07
4.90746e-07
-1.43991e-07
5.46181e-07
-1.50263e-07
6.03995e-07
-1.57025e-07
6.64127e-07
-1.63921e-07
7.26355e-07
-1.70424e-07
7.90217e-07
-1.75691e-07
8.54893e-07
-1.78139e-07
9.19167e-07
-1.75195e-07
9.81518e-07
-1.60179e-07
-1.1882e-07
1.04767e-06
-4.59111e-09
-2.7236e-08
-1.43402e-08
-1.50913e-08
-2.60064e-08
-2.32772e-09
-3.89089e-08
9.25403e-09
-5.28173e-08
1.99005e-08
-6.76755e-08
2.97798e-08
-8.34994e-08
3.89506e-08
-1.00371e-07
4.74243e-08
-1.18382e-07
5.5212e-08
-1.37631e-07
6.23474e-08
-1.58173e-07
6.88935e-08
-1.80033e-07
7.49364e-08
-2.03174e-07
8.05718e-08
-2.27541e-07
8.58908e-08
-2.5303e-07
9.09681e-08
-2.79534e-07
9.58554e-08
-3.06919e-07
1.00581e-07
-3.35069e-07
1.05151e-07
-3.63849e-07
1.09554e-07
-3.93153e-07
1.13769e-07
-4.22864e-07
1.17768e-07
-4.52898e-07
1.21525e-07
-4.83162e-07
1.25014e-07
-5.13598e-07
1.28216e-07
-5.44136e-07
1.31117e-07
-5.7474e-07
1.33711e-07
-6.05364e-07
1.35998e-07
-6.35997e-07
1.37984e-07
-6.66614e-07
1.39683e-07
-6.97223e-07
1.41113e-07
-7.27811e-07
1.42296e-07
-7.58392e-07
1.43255e-07
-7.8896e-07
1.44013e-07
-8.19533e-07
1.44595e-07
-8.50109e-07
1.45023e-07
-8.80704e-07
1.45322e-07
-9.11316e-07
1.45512e-07
-9.41959e-07
1.45612e-07
-9.72626e-07
1.4564e-07
-1.00333e-06
1.4561e-07
-1.03404e-06
1.45535e-07
-1.06478e-06
1.45426e-07
-1.09552e-06
1.45288e-07
-1.12627e-06
1.45126e-07
-1.157e-06
1.44942e-07
-1.18772e-06
1.44737e-07
-1.21842e-06
1.44509e-07
-1.24908e-06
1.44256e-07
-1.27971e-06
1.43975e-07
-1.31029e-06
1.4366e-07
-1.3408e-06
1.43308e-07
-1.37125e-06
1.42914e-07
-1.40161e-06
1.42471e-07
-1.43187e-06
1.41975e-07
-1.46201e-06
1.41418e-07
-1.49202e-06
1.40794e-07
-1.52187e-06
1.40096e-07
-1.55156e-06
1.39319e-07
-1.58105e-06
1.38455e-07
-1.61033e-06
1.37497e-07
-1.63937e-06
1.3644e-07
-1.66814e-06
1.35277e-07
-1.69662e-06
1.34001e-07
-1.72478e-06
1.32607e-07
-1.75259e-06
1.31088e-07
-1.78002e-06
1.29439e-07
-1.80704e-06
1.27655e-07
-1.83363e-06
1.2573e-07
-1.85973e-06
1.2366e-07
-1.88532e-06
1.2144e-07
-1.91037e-06
1.19067e-07
-1.93484e-06
1.16536e-07
-1.95869e-06
1.13843e-07
-1.98188e-06
1.10985e-07
-2.00437e-06
1.07959e-07
-2.02614e-06
1.04763e-07
-2.04713e-06
1.01394e-07
-2.06731e-06
9.78505e-08
-2.08663e-06
9.41303e-08
-2.10505e-06
9.02319e-08
-2.12254e-06
8.61543e-08
-2.13905e-06
8.18963e-08
-2.15454e-06
7.74573e-08
-2.16898e-06
7.28372e-08
-2.18231e-06
6.80363e-08
-2.1945e-06
6.30554e-08
-2.20551e-06
5.78958e-08
-2.2153e-06
5.25591e-08
-2.22383e-06
4.70479e-08
-2.23107e-06
4.13641e-08
-2.23699e-06
3.55118e-08
-2.24157e-06
2.94964e-08
-2.24477e-06
2.33256e-08
-2.24657e-06
1.70106e-08
-2.24693e-06
1.0565e-08
-2.24582e-06
4.00443e-09
-2.2432e-06
-2.65925e-09
-2.23899e-06
-9.42463e-09
-2.23317e-06
-1.63022e-08
-2.22571e-06
-2.32955e-08
-2.21656e-06
-3.03957e-08
-2.20572e-06
-3.7589e-08
-2.19316e-06
-4.48624e-08
-2.17885e-06
-5.21997e-08
-2.1628e-06
-5.95866e-08
-2.14498e-06
-6.70056e-08
-2.1254e-06
-7.44408e-08
-2.10406e-06
-8.18736e-08
-2.08096e-06