/*--------------------------------*- C++ -*----------------------------------*\
| =========                 |                                                 |
| \\      /  F ield         | OpenFOAM: The Open Source CFD Toolbox           |
|  \\    /   O peration     | Version:  v1712                                 |
|   \\  /    A nd           | Web:      www.OpenFOAM.com                      |
|    \\/     M anipulation  |                                                 |
\*---------------------------------------------------------------------------*/
FoamFile
{
    version     2.0;
    format      ascii;
    class       volVectorField;
    location    "200";
    object      U;
}
// * * * * * * * * * * * * * * * * * * * * * * * * * * * * * * * * * * * * * //

dimensions      [0 1 -1 0 0 0 0];


internalField   nonuniform List<vector> 
12225
(
(9.84118 -0.956372 0)
(9.59253 -0.887946 0)
(9.31755 -0.594491 0)
(9.01471 -0.370011 0)
(8.72578 -0.225977 0)
(8.46713 -0.137868 0)
(8.24003 -0.0844852 0)
(8.04173 -0.0516291 0)
(7.86977 -0.0312313 0)
(7.72073 -0.0185977 0)
(7.59161 -0.0106562 0)
(7.47929 -0.00571865 0)
(7.38159 -0.00271688 0)
(7.29654 -0.00100736 0)
(7.22247 -0.000127 0)
(7.16035 -0.000496299 0)
(7.10067 0.00257103 0)
(7.07264 -0.0177081 0)
(10.0722 0.255857 0)
(10.1867 0.418354 0)
(10.2285 0.384143 0)
(10.2296 0.310408 0)
(10.2114 0.245685 0)
(10.1794 0.195439 0)
(10.1334 0.157682 0)
(10.0758 0.129674 0)
(10.0105 0.108825 0)
(9.94086 0.0930934 0)
(9.86925 0.0809191 0)
(9.79745 0.0713071 0)
(9.72651 0.0635094 0)
(9.6576 0.0570529 0)
(9.59108 0.0512944 0)
(9.52793 0.046683 0)
(9.46871 0.0401863 0)
(9.4154 0.0402624 0)
(10.0032 0.059958 0)
(10.0309 0.0482983 0)
(10.0614 0.0100045 0)
(10.0897 4.70969e-06 0)
(10.1151 0.00817072 0)
(10.1376 0.0194277 0)
(10.1547 0.0290173 0)
(10.1657 0.0365022 0)
(10.1714 0.0420622 0)
(10.173 0.0459166 0)
(10.1711 0.0483793 0)
(10.1663 0.0497459 0)
(10.1591 0.0502527 0)
(10.1502 0.0500501 0)
(10.1401 0.0491721 0)
(10.1292 0.0476295 0)
(10.1183 0.0451324 0)
(10.1063 0.0403384 0)
(9.99715 0.00991856 0)
(10.009 0.0260969 0)
(10.0342 0.0383071 0)
(10.0554 0.0533949 0)
(10.0721 0.0649252 0)
(10.0875 0.0702654 0)
(10.1015 0.0714171 0)
(10.1134 0.0706607 0)
(10.1236 0.0690811 0)
(10.1326 0.067105 0)
(10.1404 0.0649318 0)
(10.1473 0.062684 0)
(10.1532 0.0603822 0)
(10.1585 0.0580057 0)
(10.1632 0.0554179 0)
(10.1675 0.0524792 0)
(10.1713 0.0487053 0)
(10.1743 0.0429997 0)
(9.99907 0.00681064 0)
(10.0082 0.0343056 0)
(10.0279 0.048357 0)
(10.0436 0.0548992 0)
(10.0558 0.0583659 0)
(10.0678 0.0595461 0)
(10.0793 0.059314 0)
(10.0897 0.0585698 0)
(10.0991 0.0576743 0)
(10.1077 0.0566622 0)
(10.1157 0.0555252 0)
(10.1232 0.0542582 0)
(10.1303 0.0528378 0)
(10.137 0.0512074 0)
(10.1434 0.049248 0)
(10.1496 0.0468036 0)
(10.1554 0.0435498 0)
(10.1605 0.0391808 0)
(10.0002 0.00924459 0)
(10.0079 0.0334121 0)
(10.0236 0.044079 0)
(10.0369 0.0484063 0)
(10.0478 0.0518663 0)
(10.0585 0.0542623 0)
(10.069 0.0552922 0)
(10.0785 0.0554532 0)
(10.0871 0.055138 0)
(10.0951 0.0544774 0)
(10.1026 0.0535252 0)
(10.1098 0.0523239 0)
(10.1166 0.0508845 0)
(10.1231 0.0491776 0)
(10.1294 0.0471183 0)
(10.1355 0.0445884 0)
(10.1411 0.0414186 0)
(10.1462 0.0374887 0)
(10.0003 0.00912681 0)
(10.007 0.0287601 0)
(10.0201 0.0388973 0)
(10.0322 0.0440312 0)
(10.0425 0.0481323 0)
(10.0525 0.0509336 0)
(10.0622 0.0521764 0)
(10.0711 0.0524086 0)
(10.0793 0.0520938 0)
(10.0869 0.051407 0)
(10.094 0.0504179 0)
(10.1009 0.0491717 0)
(10.1074 0.0476836 0)
(10.1136 0.0459279 0)
(10.1196 0.0438415 0)
(10.1254 0.0413384 0)
(10.1307 0.0383292 0)
(10.1354 0.0347779 0)
(10.0004 0.00814579 0)
(10.006 0.024713 0)
(10.0171 0.0348873 0)
(10.0283 0.0405332 0)
(10.0381 0.0446101 0)
(10.0475 0.0473222 0)
(10.0567 0.0485992 0)
(10.0652 0.0489125 0)
(10.073 0.0486747 0)
(10.0804 0.0480528 0)
(10.0873 0.047115 0)
(10.0939 0.0459035 0)
(10.1002 0.0444366 0)
(10.1062 0.042697 0)
(10.112 0.0406443 0)
(10.1174 0.0382255 0)
(10.1223 0.0354038 0)
(10.1268 0.0321986 0)
(10.0004 0.00721074 0)
(10.0052 0.0215199 0)
(10.0146 0.0312718 0)
(10.0248 0.0369513 0)
(10.0341 0.0408478 0)
(10.0429 0.0434743 0)
(10.0516 0.0448356 0)
(10.0598 0.0452742 0)
(10.0675 0.045138 0)
(10.0746 0.0445928 0)
(10.0814 0.0437118 0)
(10.0878 0.0425398 0)
(10.0939 0.0411012 0)
(10.0997 0.0393919 0)
(10.1052 0.0373924 0)
(10.1103 0.0350787 0)
(10.115 0.032448 0)
(10.1193 0.0295491 0)
(10.0004 0.00637209 0)
(10.0045 0.0187466 0)
(10.0125 0.0277499 0)
(10.0216 0.0332895 0)
(10.0303 0.0370353 0)
(10.0387 0.0395862 0)
(10.0469 0.0410003 0)
(10.0548 0.0415288 0)
(10.0622 0.0414679 0)
(10.0692 0.0409832 0)
(10.0758 0.0401526 0)
(10.0821 0.0390238 0)
(10.088 0.0376263 0)
(10.0936 0.0359681 0)
(10.0989 0.034047 0)
(10.1038 0.0318615 0)
(10.1083 0.0294281 0)
(10.1123 0.0268081 0)
(10.0004 0.00558252 0)
(10.0039 0.0162496 0)
(10.0107 0.0243874 0)
(10.0189 0.0296788 0)
(10.0269 0.0332538 0)
(10.0348 0.035687 0)
(10.0426 0.0370921 0)
(10.0501 0.0376651 0)
(10.0573 0.037654 0)
(10.064 0.0372167 0)
(10.0704 0.0364333 0)
(10.0765 0.035353 0)
(10.0823 0.0340095 0)
(10.0877 0.0324208 0)
(10.0928 0.030598 0)
(10.0975 0.028555 0)
(10.1018 0.0263186 0)
(10.1057 0.0239537 0)
(10.0003 0.00487798 0)
(10.0034 0.0141494 0)
(10.0093 0.0214625 0)
(10.0167 0.0264313 0)
(10.0242 0.029805 0)
(10.0316 0.0320933 0)
(10.039 0.0334467 0)
(10.0461 0.0340279 0)
(10.053 0.0340429 0)
(10.0595 0.0336378 0)
(10.0658 0.0328931 0)
(10.0717 0.0318589 0)
(10.0772 0.0305723 0)
(10.0825 0.0290584 0)
(10.0874 0.0273373 0)
(10.092 0.0254316 0)
(10.0961 0.0233725 0)
(10.0999 0.021224 0)
(10.0003 0.00421722 0)
(10.003 0.0122239 0)
(10.0082 0.0186999 0)
(10.0148 0.0232642 0)
(10.0217 0.0263976 0)
(10.0287 0.0285178 0)
(10.0357 0.0297895 0)
(10.0425 0.0303529 0)
(10.0491 0.0303779 0)
(10.0554 0.0299958 0)
(10.0614 0.0292854 0)
(10.0671 0.028298 0)
(10.0725 0.0270726 0)
(10.0775 0.0256394 0)
(10.0823 0.0240243 0)
(10.0867 0.0222555 0)
(10.0907 0.0203646 0)
(10.0944 0.0184147 0)
(10.0003 0.00352885 0)
(10.0026 0.0102169 0)
(10.0071 0.0157361 0)
(10.0129 0.0197576 0)
(10.0193 0.0225561 0)
(10.0258 0.0244439 0)
(10.0323 0.0255811 0)
(10.0387 0.0260885 0)
(10.045 0.0261008 0)
(10.051 0.0257305 0)
(10.0568 0.0250524 0)
(10.0622 0.0241174 0)
(10.0674 0.0229652 0)
(10.0723 0.0216291 0)
(10.0768 0.0201382 0)
(10.081 0.0185239 0)
(10.0849 0.0168159 0)
(10.0885 0.0150736 0)
(10.0002 0.00280912 0)
(10.0022 0.00812436 0)
(10.006 0.0125815 0)
(10.0112 0.0159195 0)
(10.0169 0.0182706 0)
(10.0229 0.0198458 0)
(10.0289 0.0207833 0)
(10.035 0.0211841 0)
(10.0409 0.0211511 0)
(10.0466 0.0207754 0)
(10.0521 0.0201238 0)
(10.0573 0.0192446 0)
(10.0622 0.0181764 0)
(10.0669 0.0169523 0)
(10.0712 0.0156028 0)
(10.0753 0.0141578 0)
(10.079 0.0126448 0)
(10.0824 0.0111158 0)
(10.0002 0.00205835 0)
(10.0019 0.00594938 0)
(10.0052 0.00924668 0)
(10.0097 0.0117586 0)
(10.0148 0.0135339 0)
(10.0202 0.014699 0)
(10.0258 0.0153576 0)
(10.0314 0.015588 0)
(10.037 0.015465 0)
(10.0424 0.0150573 0)
(10.0475 0.0144199 0)
(10.0525 0.0135946 0)
(10.0572 0.0126163 0)
(10.0616 0.011515 0)
(10.0657 0.0103186 0)
(10.0696 0.00905373 0)
(10.0732 0.00774258 0)
(10.0765 0.00643048 0)
(10.0002 0.0012751 0)
(10.0016 0.00368025 0)
(10.0045 0.00571773 0)
(10.0084 0.00726204 0)
(10.013 0.0083229 0)
(10.018 0.00896512 0)
(10.0231 0.00925281 0)
(10.0283 0.00923828 0)
(10.0335 0.00897018 0)
(10.0386 0.00849474 0)
(10.0435 0.00785089 0)
(10.0482 0.00707093 0)
(10.0526 0.00618145 0)
(10.0568 0.00520695 0)
(10.0608 0.00416881 0)
(10.0645 0.00308846 0)
(10.068 0.00198117 0)
(10.0712 0.000884656 0)
(10.0002 0.000443965 0)
(10.0014 0.00126636 0)
(10.004 0.00192243 0)
(10.0075 0.00234937 0)
(10.0117 0.00254651 0)
(10.0163 0.0025373 0)
(10.0211 0.00234786 0)
(10.026 0.00200186 0)
(10.0309 0.00152286 0)
(10.0357 0.000933685 0)
(10.0403 0.00025455 0)
(10.0448 -0.000496978 0)
(10.0491 -0.00130534 0)
(10.0531 -0.00215594 0)
(10.0569 -0.00303538 0)
(10.0605 -0.00393048 0)
(10.0639 -0.00483227 0)
(10.067 -0.00571268 0)
(10.0001 -0.000477878 0)
(10.0014 -0.00141507 0)
(10.0038 -0.00231663 0)
(10.0071 -0.00317958 0)
(10.0112 -0.00400026 0)
(10.0156 -0.0047891 0)
(10.0202 -0.00556056 0)
(10.025 -0.00632185 0)
(10.0297 -0.00707601 0)
(10.0343 -0.00782458 0)
(10.0388 -0.00856985 0)
(10.0432 -0.00931207 0)
(10.0473 -0.0100509 0)
(10.0513 -0.0107842 0)
(10.055 -0.0115097 0)
(10.0585 -0.0122237 0)
(10.0618 -0.0129252 0)
(10.0649 -0.013596 0)
(10.0002 -0.00135079 0)
(10.0014 -0.00396405 0)
(10.004 -0.00635884 0)
(10.0075 -0.00845086 0)
(10.0117 -0.0102274 0)
(10.0163 -0.0117432 0)
(10.021 -0.013054 0)
(10.0258 -0.014195 0)
(10.0306 -0.0151938 0)
(10.0353 -0.0160803 0)
(10.0399 -0.0168789 0)
(10.0442 -0.0176086 0)
(10.0484 -0.0182817 0)
(10.0523 -0.0189088 0)
(10.0561 -0.0194968 0)
(10.0596 -0.0200512 0)
(10.0628 -0.0205763 0)
(10.0659 -0.0210633 0)
(10.0002 -0.00209066 0)
(10.0016 -0.00615945 0)
(10.0043 -0.00985707 0)
(10.0083 -0.012956 0)
(10.0129 -0.0154631 0)
(10.0177 -0.0175284 0)
(10.0227 -0.0192499 0)
(10.0277 -0.0206679 0)
(10.0327 -0.0218271 0)
(10.0376 -0.0227858 0)
(10.0422 -0.0235923 0)
(10.0467 -0.0242822 0)
(10.0509 -0.0248798 0)
(10.0549 -0.0254061 0)
(10.0587 -0.0258755 0)
(10.0622 -0.0262998 0)
(10.0656 -0.0266876 0)
(10.0687 -0.0270357 0)
(10.0002 -0.00277449 0)
(10.0017 -0.00829242 0)
(10.0049 -0.0133231 0)
(10.0094 -0.0173382 0)
(10.0145 -0.020419 0)
(10.0198 -0.022897 0)
(10.0251 -0.0249261 0)
(10.0304 -0.026546 0)
(10.0357 -0.0278179 0)
(10.0408 -0.0288197 0)
(10.0456 -0.0296141 0)
(10.0502 -0.0302456 0)
(10.0545 -0.0307515 0)
(10.0586 -0.0311614 0)
(10.0624 -0.0314999 0)
(10.066 -0.0317826 0)
(10.0694 -0.0320236 0)
(10.0725 -0.0322212 0)
(10.0001 -0.00338296 0)
(10.0017 -0.0104009 0)
(10.0055 -0.0167738 0)
(10.0109 -0.0216174 0)
(10.0166 -0.0252416 0)
(10.0223 -0.028102 0)
(10.028 -0.030326 0)
(10.0337 -0.0319985 0)
(10.0392 -0.033263 0)
(10.0445 -0.0342377 0)
(10.0495 -0.0349881 0)
(10.0543 -0.0355582 0)
(10.0587 -0.0359889 0)
(10.0629 -0.0363154 0)
(10.0668 -0.0365641 0)
(10.0705 -0.0367538 0)
(10.0739 -0.0368992 0)
(10.0771 -0.0370058 0)
(10.0001 -0.00387164 0)
(10.0016 -0.0128921 0)
(10.0061 -0.0203213 0)
(10.0124 -0.0253843 0)
(10.0188 -0.0294425 0)
(10.025 -0.0329058 0)
(10.0312 -0.0355063 0)
(10.0373 -0.0372744 0)
(10.0431 -0.0384753 0)
(10.0486 -0.0393102 0)
(10.0538 -0.0398766 0)
(10.0587 -0.0402403 0)
(10.0633 -0.0404593 0)
(10.0675 -0.0405822 0)
(10.0716 -0.0406407 0)
(10.0753 -0.0406575 0)
(10.0788 -0.0406448 0)
(10.082 -0.0406005 0)
(9.9998 -0.00354906 0)
(10.0011 -0.0165506 0)
(10.007 -0.0255213 0)
(10.0141 -0.029695 0)
(10.0207 -0.0330165 0)
(10.0273 -0.0364713 0)
(10.0341 -0.039403 0)
(10.0409 -0.0415797 0)
(10.0473 -0.0431605 0)
(10.0532 -0.0442926 0)
(10.0587 -0.0450564 0)
(10.0639 -0.0455267 0)
(10.0688 -0.0457801 0)
(10.0733 -0.0458811 0)
(10.0775 -0.0458775 0)
(10.0814 -0.0458023 0)
(10.0851 -0.0456814 0)
(10.0885 -0.0455247 0)
(9.99829 3.19493e-07 0)
(9.99797 -0.0176195 0)
(10.0068 -0.0315031 0)
(10.0162 -0.0375878 0)
(10.0233 -0.0402852 0)
(10.0303 -0.0418362 0)
(10.0379 -0.0427918 0)
(10.0455 -0.0434861 0)
(10.0526 -0.044086 0)
(10.0593 -0.0445992 0)
(10.0656 -0.0449927 0)
(10.0715 -0.0452786 0)
(10.077 -0.0454782 0)
(10.082 -0.0456194 0)
(10.0867 -0.0457168 0)
(10.091 -0.0457866 0)
(10.095 -0.0458342 0)
(10.0986 -0.045827 0)
(9.99413 0.00277658 0)
(9.98996 -0.00760045 0)
(10.0032 -0.0228594 0)
(10.0185 -0.0396798 0)
(10.0302 -0.0530711 0)
(10.0403 -0.0608424 0)
(10.0501 -0.0643784 0)
(10.0593 -0.0656258 0)
(10.0677 -0.0657131 0)
(10.0756 -0.0650875 0)
(10.0829 -0.0640321 0)
(10.0897 -0.0627368 0)
(10.0959 -0.061364 0)
(10.1015 -0.0599941 0)
(10.1066 -0.0586925 0)
(10.1113 -0.0574883 0)
(10.1156 -0.0564073 0)
(10.1195 -0.0554024 0)
(9.9942 -0.0305073 0)
(9.99526 -0.0134571 0)
(10.0086 0.0215194 0)
(10.0272 0.0320175 0)
(10.047 0.024143 0)
(10.0668 0.0116007 0)
(10.085 -0.000117347 0)
(10.1007 -0.0103331 0)
(10.1139 -0.0189729 0)
(10.125 -0.0260456 0)
(10.1343 -0.0316465 0)
(10.1418 -0.036018 0)
(10.1476 -0.0393916 0)
(10.1519 -0.0419847 0)
(10.1549 -0.0439605 0)
(10.1568 -0.0454885 0)
(10.1578 -0.046698 0)
(10.1578 -0.0477346 0)
(10.0368 -0.209413 0)
(10.1083 -0.365899 0)
(10.1423 -0.352747 0)
(10.1567 -0.298036 0)
(10.1697 -0.247624 0)
(10.182 -0.206793 0)
(10.1884 -0.174356 0)
(10.1867 -0.148993 0)
(10.1774 -0.129275 0)
(10.1619 -0.113751 0)
(10.1413 -0.101354 0)
(10.1168 -0.0913246 0)
(10.0893 -0.083131 0)
(10.0597 -0.076368 0)
(10.0287 -0.0707546 0)
(9.99682 -0.0661111 0)
(9.9646 -0.0622877 0)
(9.93271 -0.0595848 0)
(9.92866 0.765531 0)
(9.83924 0.742069 0)
(9.70533 0.52443 0)
(9.52634 0.348782 0)
(9.33184 0.227689 0)
(9.1406 0.146985 0)
(8.95878 0.0935811 0)
(8.78887 0.0579872 0)
(8.63226 0.0341223 0)
(8.48959 0.0181052 0)
(8.36022 0.00744031 0)
(8.24334 0.000462345 0)
(8.13778 -0.00408552 0)
(8.04247 -0.0069392 0)
(7.95631 -0.00861718 0)
(7.87831 -0.0095553 0)
(7.80712 -0.0100375 0)
(7.74237 -0.0106493 0)
(0.00584923 -0.0117241 -8.67537e-19)
(0.0191935 -0.0210799 7.12993e-19)
(0.0336522 -0.0228148 0)
(0.0465811 -0.0197753 0)
(0.055653 -0.0142552 0)
(0.0603688 -0.00789661 -4.39969e-19)
(0.0608149 -0.00177081 0)
(0.0574327 0.00339407 0)
(0.0511645 0.00729324 0)
(0.0427077 0.0100301 0)
(0.0326497 0.0119188 4.67957e-19)
(0.0214255 0.013271 0)
(0.00929459 0.0142849 0)
(-0.00360412 0.0149471 0)
(-0.0172859 0.0153492 0)
(-0.0318469 0.0157403 4.34005e-19)
(-0.0473618 0.0162625 0)
(-0.0639406 0.0169482 0)
(-0.0816877 0.0178051 0)
(-0.100704 0.0188097 0)
(-0.121067 0.0199459 0)
(-0.142838 0.0211782 0)
(-0.166051 0.0224826 0)
(-0.190716 0.0238172 2.2569e-19)
(-0.216816 0.0251564 -2.09686e-19)
(-0.244312 0.0264641 1.95214e-19)
(-0.273143 0.0277224 1.82144e-19)
(-0.303239 0.0289007 0)
(-0.334514 0.0299826 0)
(-0.36687 0.0309451 -1.5004e-19)
(-0.400198 0.0317864 -1.41343e-19)
(-0.434391 0.0324962 0)
(-0.469337 0.0330809 0)
(-0.504931 0.0335328 -1.19889e-19)
(-0.541064 0.0338596 0)
(-0.577644 0.0340577 0)
(-0.614582 0.0341433 1.03807e-19)
(-0.651802 0.0341241 0)
(-0.689235 0.0340295 9.52909e-20)
(-0.726823 0.0338768 1.83114e-19)
(-0.764508 0.0337015 0)
(-0.802242 0.0335202 0)
(-0.840052 0.0333562 0)
(-0.877955 0.0331959 0)
(-0.915937 0.0330401 0)
(-0.953996 0.0328792 1.4859e-19)
(-0.992128 0.0327214 1.44139e-19)
(-1.03033 0.0325573 1.3997e-19)
(-1.0686 0.0323951 0)
(-1.10692 0.0322256 -1.32376e-19)
(-1.1453 0.0320574 0)
(-1.18372 0.0318806 1.25635e-19)
(-1.22219 0.031703 1.22541e-19)
(-1.26068 0.031516 0)
(-1.29917 0.0313262 0)
(-1.33767 0.0311237 0)
(-1.37615 0.0309153 1.11684e-19)
(-1.4146 0.0306921 0)
(-1.453 0.0304604 0)
(-1.49132 0.0302103 0)
(-1.52955 0.0299486 0)
(-1.56766 0.0296665 0)
(-1.60561 0.0293704 0)
(-1.64339 0.0290505 0)
(-1.68096 0.028714 0)
(-1.71829 0.0283517 -9.35942e-20)
(-1.75534 0.0279706 0)
(-1.79209 0.0275622 0)
(-1.82848 0.0271337 8.88967e-20)
(-1.86449 0.0266766 8.74391e-20)
(-1.90007 0.0261981 0)
(-1.93518 0.0256898 -8.46648e-20)
(-1.96978 0.0251591 8.33417e-20)
(-2.00382 0.0245977 0)
(-2.03725 0.0240134 -8.08083e-20)
(-2.07004 0.0233982 0)
(-2.10214 0.0227598 0)
(-2.13349 0.0220914 7.72487e-20)
(-2.16404 0.0214001 0)
(-2.19374 0.0206778 -7.50061e-20)
(-2.22254 0.0199319 0)
(-2.2504 0.0191557 7.28457e-20)
(-2.27725 0.0183554 7.17907e-20)
(-2.30305 0.0175233 7.07498e-20)
(-2.32774 0.0166654 1.39442e-19)
(-2.35127 0.0157744 -1.37404e-19)
(-2.37358 0.0148543 0)
(-2.39461 0.0138955 0)
(-2.4143 0.0128971 0)
(-2.43257 0.0118514 -1.2937e-19)
(-2.44938 0.010749 -1.27374e-19)
(-2.46469 0.00958143 1.25377e-19)
(-2.4784 0.00834218 0)
(-2.49042 0.00702869 -1.21366e-19)
(-2.50067 0.00565013 -1.1935e-19)
(-2.50903 0.00423565 -1.17328e-19)
(-2.51537 0.00283257 0)
(-2.51955 0.00149076 0)
(-2.52146 0.000284361 0)
(-2.52163 -0.000811282 -1.08977e-19)
(-2.51998 -0.00188085 0)
(-2.51657 -0.00294552 0)
(-2.51136 -0.00401423 1.02192e-19)
(-2.50434 -0.00508826 0)
(-2.4955 -0.00616549 0)
(-2.48481 -0.00724613 9.48683e-20)
(-2.47226 -0.00832768 0)
(-2.45784 -0.00940956 0)
(-2.44154 -0.0104891 -8.68965e-20)
(-2.42337 -0.0115649 -8.40764e-20)
(-2.40332 -0.0126345 0)
(-2.38142 -0.0136953 7.81679e-20)
(-2.35767 -0.0147452 0)
(-2.33209 -0.0157806 -7.18751e-20)
(-2.30471 -0.0168001 0)
(-2.27556 -0.017799 -6.51671e-20)
(-2.24468 -0.0187759 -6.16483e-20)
(-2.2121 -0.0197253 0)
(-2.17789 -0.0206466 0)
(-2.14209 -0.0215336 0)
(-2.10474 -0.0223859 0)
(-2.06592 -0.0231971 0)
(-2.02569 -0.0239692 0)
(-1.98413 -0.0246953 0)
(-1.94133 -0.0253806 -2.9131e-20)
(-1.89738 -0.0260182 2.44853e-20)
(-1.85234 -0.0266152 0)
(-1.80631 -0.0271598 0)
(-1.75937 -0.0276542 0)
(-1.71163 -0.0280886 0)
(-1.66317 -0.0284713 -1.56387e-21)
(-1.61408 -0.0287943 0)
(-1.56446 -0.0290599 2.37285e-20)
(-1.51442 -0.0292621 -3.52349e-20)
(-1.46405 -0.0294038 0)
(-1.41345 -0.0294809 0)
(-1.36271 -0.0294944 0)
(-1.31193 -0.029443 8.40926e-20)
(-1.26117 -0.0293263 9.70134e-20)
(-1.21054 -0.0291495 0)
(-1.16012 -0.0289127 1.23687e-19)
(-1.10999 -0.0286228 1.37431e-19)
(-1.06024 -0.0282797 -1.5144e-19)
(-1.01094 -0.0278885 0)
(-0.962146 -0.0274471 0)
(-0.913918 -0.0269634 -1.95021e-19)
(-0.866306 -0.0264355 0)
(-0.819349 -0.0258735 0)
(-0.773079 -0.0252763 0)
(-0.727516 -0.0246554 0)
(-0.682672 -0.0240097 2.72661e-19)
(-0.638548 -0.0233521 2.88936e-19)
(-0.595135 -0.0226828 0)
(-0.552413 -0.0220167 3.22273e-19)
(-0.510349 -0.0213533 0)
(-0.468901 -0.020707 0)
(-0.428016 -0.0200796 3.74501e-19)
(-0.387625 -0.0194874 0)
(-0.347648 -0.0189307 4.11172e-19)
(-0.307995 -0.018426 0)
(-0.26856 -0.0179808 0)
(-0.229227 -0.0176104 4.70186e-19)
(-0.189875 -0.0173174 0)
(-0.150339 -0.0171398 5.13462e-19)
(-0.110454 -0.0171154 0)
(-0.0700984 -0.0172578 0)
(-0.0291975 -0.017513 0)
(0.0123561 -0.0177095 -6.12691e-19)
(0.0537612 -0.0175334 0)
(0.0954227 -0.0172661 6.02267e-19)
(0.138559 -0.0172993 0)
(0.183421 -0.0175945 0)
(0.230418 -0.0180931 0)
(0.27984 -0.0187216 0)
(0.331886 -0.0194129 0)
(0.386271 -0.0200315 0)
(0.443117 -0.0202944 0)
(0.497734 -0.0196367 -1.02135e-18)
(0.558753 -0.0167277 0)
(0.568576 0.000970181 0)
(0.00765721 -0.0403597 1.97844e-18)
(0.0179987 -0.0471528 -1.17057e-18)
(0.0227733 -0.0385035 0)
(0.0238032 -0.0266365 3.75025e-19)
(0.0218954 -0.0141727 0)
(0.0174525 -0.00220128 1.51212e-19)
(0.0108916 0.0085786 -2.90081e-19)
(0.00237901 0.0177159 -2.82919e-19)
(-0.00812375 0.0250675 0)
(-0.020563 0.0307989 -2.65089e-19)
(-0.034856 0.0352504 -1.27901e-19)
(-0.0509008 0.0388022 0)
(-0.0686133 0.0417966 0)
(-0.0878938 0.0444898 0)
(-0.108608 0.0470831 0)
(-0.130682 0.0497259 -1.06645e-19)
(-0.154097 0.0525073 0)
(-0.178838 0.0554496 1.98058e-19)
(-0.204881 0.0585363 0)
(-0.232192 0.0617183 0)
(-0.260721 0.0649408 -1.76675e-19)
(-0.290404 0.0681373 0)
(-0.321163 0.0712499 1.63274e-19)
(-0.352909 0.0742173 -7.85516e-20)
(-0.385542 0.0769933 7.54825e-20)
(-0.418958 0.079534 -7.25455e-20)
(-0.453049 0.0818151 -6.97461e-20)
(-0.48771 0.0838186 0)
(-0.522838 0.0855397 0)
(-0.558337 0.086967 6.21847e-20)
(-0.594122 0.0881 -5.97738e-20)
(-0.630114 0.0889443 0)
(-0.666243 0.089525 0)
(-0.702449 0.0898619 5.40262e-20)
(-0.738684 0.0899844 0)
(-0.774913 0.0899127 0)
(-0.811112 0.089678 -4.91216e-20)
(-0.847271 0.0893005 0)
(-0.883383 0.0888142 4.61915e-20)
(-0.919449 0.0882446 -9.0178e-20)
(-0.95547 0.0876306 0)
(-0.991442 0.0869968 0)
(-1.02736 0.0863658 -1.66685e-19)
(-1.0632 0.085732 -1.62718e-19)
(-1.09897 0.0850994 -1.58961e-19)
(-1.13466 0.0844606 7.75409e-20)
(-1.17027 0.0838213 -7.61654e-20)
(-1.2058 0.0831735 -2.23349e-19)
(-1.24124 0.0825223 1.45725e-19)
(-1.27658 0.081859 7.15577e-20)
(-1.31183 0.0811887 0)
(-1.34698 0.0805022 -6.88209e-20)
(-1.38201 0.0798043 6.72217e-20)
(-1.41691 0.0790858 0)
(-1.45168 0.0783506 0)
(-1.48629 0.0775885 0)
(-1.52073 0.0768036 -6.28998e-20)
(-1.55499 0.0759862 0)
(-1.58904 0.0751402 1.21351e-19)
(-1.62286 0.0742554 0)
(-1.65644 0.0733363 1.17493e-19)
(-1.68974 0.0723737 0)
(-1.72275 0.0713721 -1.13879e-19)
(-1.75542 0.0703216 0)
(-1.78774 0.0692273 1.10478e-19)
(-1.81968 0.0680802 -5.42807e-20)
(-1.85121 0.0668862 0)
(-1.88228 0.0656365 -1.05714e-19)
(-1.91288 0.0643378 -5.22385e-20)
(-1.94297 0.0629816 -5.14982e-20)
(-1.97251 0.0615746 0)
(-2.00146 0.0601089 -4.98075e-20)
(-2.02979 0.0585912 -4.93657e-20)
(-2.05747 0.0570138 0)
(-2.08445 0.0553843 4.80055e-20)
(-2.11069 0.0536952 -9.44524e-20)
(-2.13617 0.0519549 0)
(-2.16082 0.0501573 -4.60338e-20)
(-2.18462 0.0483096 0)
(-2.20752 0.0464049 1.3406e-19)
(-2.22948 0.0444508 0)
(-2.25046 0.0424416 -1.30282e-19)
(-2.27041 0.0403845 -4.28569e-20)
(-2.2893 0.038273 4.20728e-20)
(-2.30708 0.0361153 8.29109e-20)
(-2.3237 0.0339064 -8.16753e-20)
(-2.33913 0.0316533 0)
(-2.35332 0.0293504 0)
(-2.36622 0.0270014 0)
(-2.37778 0.0246037 2.30393e-19)
(-2.38799 0.0221535 7.55584e-20)
(-2.39682 0.0196478 -7.42506e-20)
(-2.40424 0.0170821 0)
(-2.41023 0.0144514 -7.15459e-20)
(-2.41477 0.0117506 7.02365e-20)
(-2.4179 0.00898737 6.88681e-20)
(-2.41968 0.00619465 0)
(-2.4202 0.00343772 0)
(-2.41957 0.000807014 0)
(-2.41737 -0.00171146 6.31047e-20)
(-2.41352 -0.0041917 0)
(-2.40796 -0.00665111 -1.20269e-19)
(-2.40065 -0.0090979 -1.75611e-19)
(-2.39158 -0.0115326 1.13972e-19)
(-2.38072 -0.0139507 0)
(-2.36805 -0.0163489 5.38848e-20)
(-2.35356 -0.0187208 0)
(-2.33724 -0.0210626 1.00603e-19)
(-2.31909 -0.0233682 -4.87772e-20)
(-2.29911 -0.0256331 -4.70033e-20)
(-2.27731 -0.0278513 0)
(-2.2537 -0.0300174 -1.28849e-19)
(-2.2283 -0.0321258 8.22816e-20)
(-2.20112 -0.0341704 3.88576e-20)
(-2.17219 -0.0361461 0)
(-2.14155 -0.0380464 3.48078e-20)
(-2.10924 -0.0398672 9.89728e-20)
(-2.0753 -0.0416021 0)
(-2.03977 -0.0432472 5.77688e-20)
(-2.00272 -0.0447949 5.34165e-20)
(-1.96419 -0.0462417 4.89909e-20)
(-1.92426 -0.04758 0)
(-1.88298 -0.0488106 0)
(-1.84046 -0.0499275 0)
(-1.79676 -0.0509378 -1.58479e-20)
(-1.75197 -0.0518417 -1.23811e-20)
(-1.70619 -0.0526457 0)
(-1.65949 -0.0533239 -1.62297e-20)
(-1.61195 -0.0538844 -1.1341e-20)
(-1.56368 -0.054334 0)
(-1.51476 -0.0546767 -2.37788e-22)
(-1.46529 -0.0549009 7.08766e-21)
(-1.41536 -0.0550149 -9.79505e-21)
(-1.36507 -0.0550135 -1.2355e-20)
(-1.31451 -0.0549034 0)
(-1.26378 -0.0546828 0)
(-1.21297 -0.0543579 0)
(-1.16217 -0.0539292 -3.50564e-20)
(-1.11146 -0.0534024 3.76262e-20)
(-1.06091 -0.052784 8.77691e-20)
(-1.01062 -0.052084 -5.00928e-20)
(-0.96066 -0.0513118 5.26612e-20)
(-0.91111 -0.0504768 5.9951e-20)
(-0.86203 -0.0495847 0)
(-0.813477 -0.0486435 0)
(-0.765497 -0.04766 -7.21525e-20)
(-0.718132 -0.046644 0)
(-0.671412 -0.0456027 0)
(-0.625358 -0.0445478 1.74203e-19)
(-0.579983 -0.0434873 0)
(-0.535285 -0.042434 9.49825e-20)
(-0.491254 -0.0413944 -1.01042e-19)
(-0.447869 -0.0403829 0)
(-0.405097 -0.0394073 1.07547e-19)
(-0.362892 -0.0384824 0)
(-0.321194 -0.0376131 0)
(-0.279932 -0.0368163 -1.20419e-19)
(-0.239022 -0.0360984 2.46627e-19)
(-0.198361 -0.0354732 -1.27329e-19)
(-0.157835 -0.0349455 0)
(-0.117311 -0.0345379 0)
(-0.0766458 -0.034253 1.35924e-19)
(-0.0356777 -0.0341035 0)
(0.00577491 -0.0340946 1.41914e-19)
(0.0476862 -0.0341626 0)
(0.0902939 -0.0342995 0)
(0.13401 -0.0345501 0)
(0.179201 -0.0348286 1.44107e-19)
(0.226293 -0.0351729 0)
(0.275568 -0.0357959 -1.44069e-19)
(0.32711 -0.0367909 0)
(0.381063 -0.0380855 0)
(0.437607 -0.0395908 2.88084e-19)
(0.496848 -0.0411874 -2.88547e-19)
(0.558758 -0.0427247 0)
(0.622938 -0.043961 0)
(0.689109 -0.0443668 0)
(0.753971 -0.0430852 8.85456e-19)
(0.82208 -0.037001 0)
(0.863097 -0.0156116 -6.18565e-19)
(0.00328477 -0.0595007 -7.38594e-22)
(0.00458768 -0.0522418 1.17683e-18)
(0.00115089 -0.0342388 0)
(-0.00493376 -0.0164991 -5.02051e-19)
(-0.01294 2.72418e-06 0)
(-0.0224777 0.0150931 0)
(-0.0333644 0.0286473 5.59502e-23)
(-0.0455766 0.0405744 1.55502e-19)
(-0.0591745 0.0508569 1.48483e-19)
(-0.0742344 0.0595965 1.43166e-19)
(-0.0908106 0.0670148 0)
(-0.108919 0.0734048 0)
(-0.128538 0.0790715 -1.30694e-19)
(-0.149614 0.0842902 -2.54123e-19)
(-0.172065 0.0892749 2.47073e-19)
(-0.195803 0.0941613 0)
(-0.220732 0.0990208 2.33339e-19)
(-0.24675 0.103869 -1.13396e-19)
(-0.273754 0.108679 0)
(-0.301639 0.1134 2.13347e-19)
(-0.330301 0.117966 1.03528e-19)
(-0.359638 0.122308 -2.00502e-19)
(-0.389548 0.126366 -9.72272e-20)
(-0.419937 0.130082 0)
(-0.450717 0.133417 1.82328e-19)
(-0.481807 0.136338 1.76649e-19)
(-0.513138 0.138827 0)
(-0.544645 0.140876 1.65917e-19)
(-0.576271 0.142493 0)
(-0.607964 0.143695 1.55929e-19)
(-0.639691 0.14451 7.56868e-20)
(-0.671434 0.144969 0)
(-0.703179 0.145106 0)
(-0.734917 0.144959 0)
(-0.766644 0.144567 0)
(-0.798361 0.143969 0)
(-0.830072 0.143201 0)
(-0.86178 0.142298 1.24634e-19)
(-0.893493 0.141293 -1.82469e-19)
(-0.925214 0.140216 0)
(-0.956943 0.139094 0)
(-0.988675 0.137948 0)
(-1.0204 0.136791 1.49001e-22)
(-1.05212 0.135628 1.08727e-19)
(-1.08382 0.134461 2.12813e-19)
(-1.11549 0.133291 -2.08524e-19)
(-1.14714 0.132116 -1.02129e-19)
(-1.17876 0.130934 1.00328e-19)
(-1.21034 0.129744 -1.683e-22)
(-1.24188 0.128541 9.64638e-20)
(-1.27337 0.127323 0)
(-1.3048 0.126084 9.30464e-20)
(-1.33616 0.124823 -1.75698e-22)
(-1.36743 0.123533 0)
(-1.39862 0.122211 0)
(-1.4297 0.120851 -8.69155e-20)
(-1.46065 0.119451 0)
(-1.49147 0.118003 0)
(-1.52212 0.116506 8.26444e-20)
(-1.5526 0.114953 1.63078e-19)
(-1.58287 0.113343 -8.04682e-20)
(-1.61293 0.111669 0)
(-1.64273 0.109931 7.80701e-20)
(-1.67227 0.108123 0)
(-1.7015 0.106244 7.54472e-20)
(-1.73041 0.10429 7.46882e-20)
(-1.75896 0.10226 -1.46888e-19)
(-1.78713 0.100151 -7.22266e-20)
(-1.81488 0.0979633 0)
(-1.84219 0.0956941 1.40689e-19)
(-1.869 0.0933444 0)
(-1.89531 0.0909113 2.05255e-19)
(-1.92106 0.0883965 1.34803e-19)
(-1.94622 0.0857976 1.32896e-19)
(-1.97076 0.083117 -1.31012e-19)
(-1.99464 0.080353 1.93858e-19)
(-2.01782 0.077509 0)
(-2.04026 0.0745839 0)
(-2.06192 0.0715804 -1.23652e-19)
(-2.08276 0.0684975 -1.82877e-19)
(-2.10274 0.0653386 0)
(-2.12182 0.0621028 5.92228e-20)
(-2.13996 0.0587936 0)
(-2.15711 0.0554102 -1.72066e-19)
(-2.17324 0.0519572 -1.62818e-22)
(-2.18831 0.0484344 1.48381e-22)
(-2.20227 0.044846 1.09242e-19)
(-2.21509 0.0411921 0)
(-2.22671 0.037476 -1.05593e-19)
(-2.2371 0.0336994 -8.5131e-23)
(-2.24624 0.0298643 0)
(-2.25411 0.0259751 0)
(-2.26068 0.022039 0)
(-2.26592 0.0180672 9.62347e-20)
(-2.26982 0.0140756 0)
(-2.27237 0.0100864 0)
(-2.27354 0.00612269 0)
(-2.27329 0.00219715 0)
(-2.27155 -0.0017166 0)
(-2.26825 -0.005638 8.40726e-20)
(-2.26332 -0.00955534 0)
(-2.25675 -0.0134615 7.95747e-20)
(-2.2485 -0.0173515 7.73319e-20)
(-2.23853 -0.0212184 -7.50543e-20)
(-2.22684 -0.0250551 0)
(-2.2134 -0.0288533 -7.0391e-20)
(-2.19821 -0.0326047 0)
(-2.18125 -0.0363007 -6.55789e-20)
(-2.16252 -0.0399328 6.3116e-20)
(-2.14203 -0.0434922 1.82537e-19)
(-2.11978 -0.0469698 0)
(-2.09579 -0.0503567 1.67285e-19)
(-2.07007 -0.0536434 5.3723e-20)
(-2.04264 -0.056821 0)
(-2.01352 -0.0598799 9.60165e-20)
(-1.98277 -0.0628117 9.06125e-20)
(-1.9504 -0.0656075 -1.2719e-19)
(-1.91647 -0.0682596 0)
(-1.88102 -0.0707593 -3.64316e-20)
(-1.84411 -0.0730982 -3.35744e-20)
(-1.80579 -0.075268 -9.32715e-20)
(-1.76614 -0.0772622 0)
(-1.72521 -0.0790765 0)
(-1.68309 -0.0807082 0)
(-1.63986 -0.0821567 -2.02619e-20)
(-1.5956 -0.0834266 0)
(-1.55041 -0.084528 0)
(-1.50436 -0.0854433 9.91497e-21)
(-1.45754 -0.0861634 6.90296e-21)
(-1.41003 -0.0867036 0)
(-1.36193 -0.0870694 0)
(-1.31333 -0.0872546 -4.26578e-21)
(-1.26431 -0.087263 0)
(-1.21496 -0.0870948 1.62426e-20)
(-1.16538 -0.0867551 2.0673e-20)
(-1.11566 -0.0862475 0)
(-1.06588 -0.0855793 0)
(-1.01613 -0.0847553 -3.82802e-20)
(-0.966477 -0.0837855 -1.49036e-21)
(-0.917003 -0.0826803 -1.47531e-21)
(-0.867784 -0.0814556 0)
(-0.818893 -0.080125 -1.23354e-19)
(-0.770393 -0.0787035 0)
(-0.722343 -0.0772016 0)
(-0.674788 -0.0756337 0)
(-0.627769 -0.0740109 8.36035e-20)
(-0.581316 -0.0723494 0)
(-0.535454 -0.0706605 -1.84605e-19)
(-0.490192 -0.0689627 -9.83263e-20)
(-0.445535 -0.0672688 0)
(-0.401472 -0.065598 -1.07488e-19)
(-0.357985 -0.0639612 0)
(-0.31504 -0.0623792 0)
(-0.272597 -0.0608645 -3.58521e-19)
(-0.230598 -0.0594382 2.46309e-19)
(-0.188975 -0.0581094 0)
(-0.147643 -0.0569012 2.61231e-19)
(-0.10651 -0.0558245 -1.34851e-19)
(-0.0654626 -0.0548998 0)
(-0.0243728 -0.0541343 0)
(0.0168891 -0.0535479 0)
(0.0584367 -0.0531362 -4.36952e-19)
(0.100465 -0.0529222 0)
(0.143202 -0.0529081 -1.48355e-19)
(0.186871 -0.0531129 0)
(0.231733 -0.0535677 0)
(0.27803 -0.0542768 0)
(0.326067 -0.0552033 0)
(0.376196 -0.0563879 0)
(0.428702 -0.0579204 0)
(0.483711 -0.0598351 -3.06021e-19)
(0.541337 -0.0620798 0)
(0.601679 -0.0645472 -1.54976e-19)
(0.664756 -0.0670776 4.67027e-19)
(0.730473 -0.0694493 0)
(0.798433 -0.0713012 0)
(0.86833 -0.0719498 -3.19403e-19)
(0.937733 -0.0702285 -3.24968e-19)
(1.01049 -0.06298 3.30275e-19)
(1.06826 -0.0421193 3.41347e-19)
(-0.00289941 -0.0587289 -3.00329e-18)
(-0.00889818 -0.0399549 -1.41199e-18)
(-0.0177491 -0.0172925 -5.3163e-19)
(-0.0285223 0.00349543 -1.89401e-19)
(-0.0404727 0.0223999 0)
(-0.0532815 0.0396263 2.6809e-19)
(-0.0669272 0.055257 -1.22169e-19)
(-0.0814715 0.0693168 0)
(-0.0970005 0.0818488 -1.0907e-19)
(-0.113606 0.0929547 0)
(-0.131361 0.102802 2.03061e-19)
(-0.150305 0.111602 0)
(-0.170433 0.119579 9.59271e-20)
(-0.191705 0.126942 1.86721e-19)
(-0.21405 0.133854 -1.81738e-19)
(-0.237373 0.140429 0)
(-0.261567 0.146728 -1.7202e-19)
(-0.28652 0.152768 0)
(-0.31212 0.15853 0)
(-0.33826 0.163977 -1.57915e-19)
(-0.364841 0.169061 0)
(-0.391775 0.173734 5.10258e-23)
(-0.418982 0.177953 0)
(-0.446396 0.181686 0)
(-0.47396 0.184914 -3.74837e-23)
(-0.501627 0.187628 -1.32197e-19)
(-0.529362 0.18983 -1.2831e-19)
(-0.557138 0.191533 -1.24633e-19)
(-0.584941 0.192759 0)
(-0.612764 0.193542 -2.35429e-19)
(-0.640606 0.193927 0)
(-0.668467 0.193955 -1.1145e-19)
(-0.696353 0.193669 0)
(-0.72427 0.193112 0)
(-0.752223 0.192325 1.03148e-19)
(-0.780222 0.191347 0)
(-0.808273 0.190214 -9.82664e-20)
(-0.836383 0.18896 -3.64729e-23)
(-0.864554 0.187613 1.8773e-19)
(-0.892788 0.186198 -1.83574e-19)
(-0.921083 0.184736 0)
(-0.949434 0.183244 0)
(-0.977834 0.181733 -8.60817e-20)
(-1.00628 0.180208 0)
(-1.03475 0.178673 -8.28073e-20)
(-1.06326 0.177129 8.12196e-20)
(-1.09179 0.175576 7.96952e-20)