/*--------------------------------*- C++ -*----------------------------------*\
| =========                 |                                                 |
| \\      /  F ield         | OpenFOAM: The Open Source CFD Toolbox           |
|  \\    /   O peration     | Version:  v1712                                 |
|   \\  /    A nd           | Web:      www.OpenFOAM.com                      |
|    \\/     M anipulation  |                                                 |
\*---------------------------------------------------------------------------*/
FoamFile
{
    version     2.0;
    format      ascii;
    class       volScalarField;
    location    "0.2";
    object      p;
}
// * * * * * * * * * * * * * * * * * * * * * * * * * * * * * * * * * * * * * //

dimensions      [0 2 -2 0 0 0 0];


internalField   nonuniform List<scalar> 
300
(
2.84434e-06
-0.0303599
-0.032047
0.00888841
0.0919404
0.0304928
1.73861e-05
0.00338188
0.0440947
0.120834
0.0312836
-0.00463831
-0.00176921
0.0380673
0.116395
-0.0128581
-0.0492569
-0.0474207
-0.0093253
0.0791549
-0.10136
-0.132021
-0.133469
-0.108592
-0.0218755
0.206078
0.329549
0.45143
0.569872
0.685966
0.801488
0.91847
1.039
1.16453
1.29343
0.227784
0.342686
0.457926
0.572644
0.68682
0.800944
0.915785
1.03201
1.15012
1.26986
0.233182
0.349613
0.462547
0.575063
0.687438
0.799726
0.912208
1.02501
1.13892
1.25855
0.234626
0.358673
0.46831
0.577917
0.688141
0.798252
0.907851
1.01593
1.12305
1.24583
0.25611
0.384602
0.480202
0.582485
0.689377
0.797069
0.90274
1.0019
1.09102
1.21082
1.41391
1.5024
1.54654
1.54575
1.51526
1.38321
1.46598
1.51061
1.51527
1.4849
1.38174
1.46781
1.51347
1.51864
1.48322
1.4066
1.50589
1.55331
1.55936
1.52418
1.49325
1.59435
1.63163
1.6361
1.60728
-0.221863
-0.245352
-0.256655
-0.26937
-0.304275
-0.350762
-0.365036
-0.376281
-0.392206
-0.424089
-0.476174
-0.483002
-0.490187
-0.499479
-0.513351
-0.596221
-0.598821
-0.602967
-0.607988
-0.613076
-0.711745
-0.712773
-0.715392
-0.718508
-0.720557
-0.82368
-0.825113
-0.827455
-0.830322
-0.832635
-0.932227
-0.936186
-0.939061
-0.942933
-0.949015
-1.03735
-1.04668
-1.05008
-1.05623
-1.07366
-1.14045
-1.15858
-1.16025
-1.17101
-1.2195
-1.25016
-1.27579
-1.26334
-1.26653
-1.35378
1.77114
1.74981
1.74841
1.74305
1.72149
1.89959
1.87391
1.86484
1.85791
1.84502
1.99533
1.98376
1.97777
1.97295
1.9668
2.09837
2.09396
2.09027
2.08711
2.08462
2.20773
2.20557
2.20259
2.19998
2.19867
2.32151
2.31833
2.3146
2.31139
2.30913
2.44028
2.43202
2.42614
2.42134
2.41551
2.56888
2.54705
2.53724
2.53046
2.51746
2.72038
2.66411
2.64772
2.64116
2.61692
2.8504
2.75617
2.74887
2.75781
2.72512
-1.39842
-1.41309
-1.35093
-1.27194
-1.19883
-1.66373
-1.61876
-1.47273
-1.29634
-1.10289
-2.18444
-1.93693
-1.64326
-1.36821
-1.09716
-3.26418
-2.38081
-1.79165
-1.41124
-1.0927
-5.12561
-2.83402
-1.7731
-1.32768
-1.02514
-0.937551
-0.528242
-0.157608
0.186773
0.523608
0.858554
1.19488
1.53941
1.9151
2.34462
-0.831496
-0.48978
-0.14731
0.189534
0.524552
0.858969
1.19362
1.53031
1.87504
2.22589
-0.797548
-0.471105
-0.138987
0.193446
0.526022
0.858391
1.19005
1.52045
1.84963
2.17475
-0.779675
-0.458477
-0.13215
0.196797
0.527231
0.857887
1.18727
1.51367
1.83558
2.15276
-0.738989
-0.439479
-0.125224
0.198767
0.527718
0.858133
1.187
1.51078
1.82501
2.12665
2.64866
2.7387
2.8273
2.89597
2.87977
2.51701
2.73179
2.93404
3.10562
3.16671
2.48136
2.77453
3.09136
3.43795
3.73632
2.47036
2.81562
3.25447
3.93001
4.91375
2.42479
2.76539
3.29031
4.46166
6.86598
)
;

boundaryField
{
    movingWall
    {
        type            zeroGradient;
    }
    fixedWalls
    {
        type            zeroGradient;
    }
    frontAndBack
    {
        type            empty;
    }
}


// ************************************************************************* //
