/*--------------------------------*- C++ -*----------------------------------*\
| =========                 |                                                 |
| \\      /  F ield         | OpenFOAM: The Open Source CFD Toolbox           |
|  \\    /   O peration     | Version:  v1712                                 |
|   \\  /    A nd           | Web:      www.OpenFOAM.com                      |
|    \\/     M anipulation  |                                                 |
\*---------------------------------------------------------------------------*/
FoamFile
{
    version     2.0;
    format      ascii;
    class       surfaceScalarField;
    location    "0.2";
    object      phi;
}
// * * * * * * * * * * * * * * * * * * * * * * * * * * * * * * * * * * * * * //

dimensions      [0 3 -1 0 0 0 0];
oriented        oriented;


internalField   nonuniform List<scalar> 
540
(
-1.44845e-07
1.44821e-07
-7.33906e-07
5.89061e-07
-1.55985e-06
8.2594e-07
-2.39714e-06
8.37296e-07
6.49821e-07
-3.04696e-06
-5.97218e-07
7.42039e-07
-1.93538e-06
1.92723e-06
-3.63909e-06
2.52965e-06
-5.33379e-06
2.53199e-06
1.9641e-06
-6.64807e-06
-8.44554e-07
1.58659e-06
-2.56395e-06
3.64662e-06
-4.6717e-06
4.6374e-06
-6.73435e-06
4.59465e-06
3.48731e-06
-8.25756e-06
-8.58016e-07
2.44461e-06
-2.57701e-06
5.36561e-06
-4.65284e-06
6.71323e-06
-6.66125e-06
6.60306e-06
4.80265e-06
-7.97659e-06
-6.62007e-07
3.10661e-06
-1.99686e-06
6.70046e-06
-3.53798e-06
8.25435e-06
-4.85807e-06
7.92315e-06
-5.57868e-06
5.52327e-06
-3.39313e-06
3.46164e-07
-3.52261e-06
1.29487e-07
-3.55259e-06
2.99736e-08
-3.55297e-06
3.81668e-10
-3.5546e-06
1.62978e-09
-3.5666e-06
1.20036e-08
-3.5815e-06
1.4898e-08
-3.56755e-06
-1.3946e-08
-3.45105e-06
-1.16502e-07
-3.43916e-07
-3.10714e-06
-7.34726e-06
1.04535e-06
-7.63257e-06
4.14797e-07
-7.72614e-06
1.23544e-07
-7.7506e-06
2.48488e-08
-7.75924e-06
1.02656e-08
-7.76677e-06
1.95303e-08
-7.75891e-06
7.04419e-09
-7.68133e-06
-9.15342e-08
-7.40569e-06
-3.9214e-07
-1.048e-06
-6.7016e-06
-8.87197e-06
1.65977e-06
-9.05166e-06
5.94489e-07
-9.09587e-06
1.67748e-07
-9.105e-06
3.39807e-08
-9.10674e-06
1.20034e-08
-9.1069e-06
1.9694e-08
-9.09987e-06
1.00326e-11
-9.05763e-06
-1.33775e-07
-8.8777e-06
-5.72061e-07
-1.67118e-06
-8.25452e-06
-7.92636e-06
1.60953e-06
-7.75567e-06
4.238e-07
-7.6795e-06
9.15848e-08
-7.65636e-06
1.08382e-08
-7.64768e-06
3.31747e-09
-7.6413e-06
1.33191e-08
-7.64914e-06
7.84514e-09
-7.71103e-06
-7.1882e-08
-7.87269e-06
-4.10397e-07
-1.62171e-06
-7.92216e-06
-3.96915e-06
-3.54536e-06
-3.45377e-06
-3.44293e-06
-3.43961e-06
-3.4263e-06
-3.41845e-06
-3.49033e-06
-3.90073e-06
-5.52244e-06
-2.44477e-06
-6.62364e-07
-1.58668e-06
-8.58095e-07
-7.42108e-07
-8.44571e-07
-1.44866e-07
-5.97241e-07
-1.44866e-07
-5.36612e-06
-1.99785e-06
-3.64689e-06
-2.57732e-06
-1.9274e-06
-2.56406e-06
-5.89158e-07
-1.93548e-06
-7.34023e-07
-6.71342e-06
-3.53895e-06
-4.63752e-06
-4.65322e-06
-2.52974e-06
-4.67184e-06
-8.26034e-07
-3.63919e-06
-1.56006e-06
-6.60266e-06
-4.85845e-06
-4.59423e-06
-6.66165e-06
-2.53167e-06
-6.7344e-06
-8.37261e-07
-5.3336e-06
-2.39732e-06
-4.80183e-06
-5.57907e-06
-3.48572e-06
-7.97776e-06
-1.96263e-06
-8.2575e-06
-6.49341e-07
-6.64688e-06
-3.04666e-06
-3.42718e-07
3.44933e-06
-1.0451e-06
7.40285e-06
-1.66829e-06
8.87753e-06
-1.6206e-06
7.87546e-06
3.90267e-06
-1.13316e-07
3.56265e-06
-3.85031e-07
7.67456e-06
-5.64781e-07
9.05728e-06
-4.0704e-07
7.71772e-06
3.49563e-06
-7.02328e-09
3.56967e-06
-7.657e-08
7.74411e-06
-1.18188e-07
9.0989e-06
-6.4078e-08
7.66361e-06
3.43155e-06
2.86011e-08
3.54107e-06
3.42856e-08
7.73843e-06
2.89221e-08
9.10427e-06
2.41456e-08
7.66839e-06
3.4557e-06
3.40772e-08
3.50699e-06
5.93872e-08
7.71311e-06
6.32684e-08
9.10038e-06
4.12111e-08
7.69044e-06
3.49691e-06
2.67052e-08
3.48029e-06
4.38425e-08
7.69598e-06
5.22323e-08
9.09199e-06
4.00376e-08
7.70264e-06
3.53695e-06
-1.26121e-09
3.48155e-06
-2.42586e-08
7.71898e-06
-9.59705e-09
9.07733e-06
2.38767e-08
7.66916e-06
3.56082e-06
-8.5822e-08
3.56737e-06
-2.21538e-07
7.85469e-06
-2.01555e-07
9.05735e-06
-4.50909e-08
7.5127e-06
3.51573e-06
-3.11983e-07
3.87936e-06
-7.23661e-07
8.26637e-06
-7.36784e-07
9.07047e-06
-3.05102e-07
7.08102e-06
3.21063e-06
-8.2245e-07
4.7018e-06
-1.82693e-06
9.27085e-06
-2.10572e-06
9.34927e-06
-1.38708e-06
6.36238e-06
1.82355e-06
-1.60767e-06
-3.9714e-06
-1.65529e-06
-7.93014e-06
-1.04099e-06
-8.8718e-06
-3.44442e-07
-7.34343e-06
-3.3911e-06
-4.18781e-07
-3.55262e-06
-5.83474e-07
-7.76545e-06
-4.04083e-07
-9.05119e-06
-1.24853e-07
-7.62266e-06
-3.51596e-06
-8.00205e-08
-3.4726e-06
-1.44265e-07
-7.7012e-06
-1.0091e-07
-9.09454e-06
-1.96216e-08
-7.70395e-06
-3.53558e-06
1.26708e-08
-3.48527e-06
9.44278e-09
-7.69797e-06
1.64576e-08
-9.10156e-06
2.00635e-08
-7.70755e-06
-3.51551e-06
3.70377e-08
-3.5223e-06
5.42091e-08
-7.71515e-06
5.12349e-08
-9.09858e-06
3.13407e-08
-7.68766e-06
-3.48417e-06
4.01923e-08
-3.5625e-06
4.73242e-08
-7.72228e-06
3.9356e-08
-9.09062e-06
2.73133e-08
-7.67561e-06
-3.45686e-06
1.79344e-08
-3.58043e-06
-3.04418e-08
-7.6739e-06
-4.3676e-08
-9.07738e-06
-5.33488e-09
-7.71396e-06
-3.46219e-06
-8.01293e-08
-3.5003e-06
-2.79534e-07
-7.47449e-06
-2.92768e-07
-9.06415e-06
-1.10817e-07
-7.89591e-06
-3.57301e-06
-4.22269e-07
-3.07803e-06
-9.43324e-07
-6.95344e-06
-9.06205e-07
-9.10127e-06
-3.86334e-07
-8.41578e-06
-3.95935e-06
-1.68767e-06
-1.39036e-06
-2.52646e-06
-6.11465e-06
-2.1833e-06
-9.44442e-06
-9.80874e-07
-9.61821e-06
-4.94022e-06
-1.70425e-06
6.40605e-06
-3.61769e-06
1.11843e-05
-4.63443e-06
1.0366e-05
-4.98616e-06
6.71412e-06
2.47332e-06
-5.63594e-06
-2.67401e-06
9.08006e-06
-4.95696e-06
1.34672e-05
-5.88915e-06
1.12982e-05
-6.33065e-06
7.15562e-06
3.19924e-06
-7.05657e-06
-3.16822e-06
1.22483e-05
-4.07296e-06
1.4372e-05
-3.14883e-06
1.03741e-05
-2.12022e-06
6.127e-06
2.84618e-06
-1.76715e-06
-1.21124e-06
1.34595e-05
2.55476e-06
1.0606e-05
7.00374e-06
5.92509e-06
1.00979e-05
3.03287e-06
1.30614e-06
1.16379e-05
1.34595e-05
2.40655e-05
2.99906e-05
3.30235e-05
3.43296e-05
-5.81714e-06
1.81206e-07
-5.67266e-06
-1.44483e-07
-5.54964e-06
-1.2302e-07
-5.47865e-06
-7.09946e-08
-5.45711e-06
-2.15399e-08
-5.48775e-06
3.06452e-08
-5.58606e-06
9.83033e-08
-5.77955e-06
1.9349e-07
-6.07638e-06
2.96834e-07
1.05773e-07
-6.18215e-06
-7.74085e-06
8.65484e-07
-7.94836e-06
6.30288e-08
-7.96329e-06
-1.08088e-07
-7.93875e-06
-9.55282e-08
-7.92836e-06
-3.19313e-08
-7.94824e-06
5.0525e-08
-7.9965e-06
1.46561e-07
-8.03647e-06
2.33464e-07
-7.92816e-06
1.88523e-07
-4.5271e-07
-7.36968e-06
-1.83991e-06
9.38241e-07
-1.93637e-06
1.59487e-07
-1.98204e-06
-6.24166e-08
-1.99839e-06
-7.91719e-08
-2.00025e-06
-3.00783e-08
-1.99047e-06
4.07525e-08
-1.96215e-06
1.1824e-07
-1.89617e-06
1.67477e-07
-1.76697e-06
5.93231e-08
-5.735e-07
-1.64618e-06
1.21739e-05
4.02254e-07
1.2285e-05
4.8353e-08
1.22686e-05
-4.59531e-08
1.22352e-05
-4.57627e-08
1.22236e-05
-1.853e-08
1.22478e-05
1.65459e-08
1.23114e-05
5.46449e-08
1.23969e-05
8.1964e-08
1.24155e-05
4.077e-08
-2.35556e-07
1.20775e-05
3.47319e-05
3.47802e-05
3.47343e-05
3.46885e-05
3.467e-05
3.46865e-05
3.47412e-05
3.48231e-05
3.48639e-05
3.46283e-05
-5.56434e-06
-2.00818e-06
-5.22638e-06
-6.45261e-06
-4.11288e-06
-1.05579e-05
-1.95073e-06
-1.17803e-05
-6.89095e-06
-6.68811e-06
-2.68975e-06
-6.29086e-06
-6.84986e-06
-5.36258e-06
-1.14862e-05
-2.93511e-06
-1.42078e-05
-9.82607e-06
-1.94889e-06
-2.38703e-06
-3.01145e-06
-5.7873e-06
-4.05964e-06
-1.0438e-05
-3.25903e-06
-1.50084e-05
-1.30851e-05
1.07568e-05
-1.06633e-06
7.78252e-06
-2.81299e-06
3.25196e-06
-5.90745e-06
-8.27355e-07
-1.09291e-05
-1.39124e-05
3.3562e-05
3.0749e-05
2.48416e-05
1.39124e-05
)
;

boundaryField
{
    movingWall
    {
        type            calculated;
        value           uniform 0;
    }
    fixedWalls
    {
        type            calculated;
        value           uniform 0;
    }
    frontAndBack
    {
        type            empty;
        value           nonuniform 0();
    }
}


// ************************************************************************* //
