/*--------------------------------*- C++ -*----------------------------------*\
| =========                 |                                                 |
| \\      /  F ield         | OpenFOAM: The Open Source CFD Toolbox           |
|  \\    /   O peration     | Version:  v1712                                 |
|   \\  /    A nd           | Web:      www.OpenFOAM.com                      |
|    \\/     M anipulation  |                                                 |
\*---------------------------------------------------------------------------*/
FoamFile
{
    version     2.0;
    format      ascii;
    class       volVectorField;
    location    "0.2";
    object      U;
}
// * * * * * * * * * * * * * * * * * * * * * * * * * * * * * * * * * * * * * //

dimensions      [0 1 -1 0 0 0 0];


internalField   nonuniform List<vector> 
300
(
(-0.000766434 0.000756846 0)
(-0.0076188 0.00448663 0)
(-0.0224332 0.00660025 0)
(-0.0399354 0.0067867 0)
(-0.055399 0.00528038 0)
(-0.00456829 0.00767924 0)
(-0.0228925 0.0227136 0)
(-0.054742 0.0306754 0)
(-0.090739 0.0309723 0)
(-0.122249 0.0241812 0)
(-0.00675753 0.022762 0)
(-0.0311807 0.0546834 0)
(-0.0712633 0.0705056 0)
(-0.1157 0.0703156 0)
(-0.153672 0.0543495 0)
(-0.00692549 0.040673 0)
(-0.0315421 0.0910678 0)
(-0.0714147 0.114984 0)
(-0.115581 0.114127 0)
(-0.151906 0.0870763 0)
(-0.00530346 0.0564938 0)
(-0.024486 0.123083 0)
(-0.0552079 0.153342 0)
(-0.0885263 0.150598 0)
(-0.113844 0.112344 0)
(-0.0653929 0.00277499 0)
(-0.0697863 0.000965809 0)
(-0.0710257 0.000147443 0)
(-0.0711324 -6.49146e-05 0)
(-0.0710751 -2.15832e-06 0)
(-0.0712104 0.000143699 0)
(-0.0715579 0.000229962 0)
(-0.0717754 5.00599e-05 0)
(-0.0708442 -0.000770402 0)
(-0.0666092 -0.00265861 0)
(-0.142283 0.0131421 0)
(-0.151131 0.00523894 0)
(-0.154118 0.00147875 0)
(-0.154927 0.000225776 0)
(-0.155128 0.000120315 0)
(-0.15529 0.000350523 0)
(-0.155423 0.000286441 0)
(-0.154966 -0.000938525 0)
(-0.15227 -0.0047968 0)
(-0.143457 -0.0130177 0)
(-0.174206 0.0279016 0)
(-0.180476 0.0108335 0)
(-0.181783 0.00327527 0)
(-0.182069 0.000719262 0)
(-0.182134 0.00027041 0)
(-0.182153 0.000404655 0)
(-0.182131 -1.15417e-05 0)
(-0.181914 -0.00259458 0)
(-0.180679 -0.0103983 0)
(-0.174295 -0.0280496 0)
(-0.161021 0.0369936 0)
(-0.157096 0.0120293 0)
(-0.154029 0.00312482 0)
(-0.153191 0.000560534 0)
(-0.153017 0.000181789 0)
(-0.152865 0.000349174 0)
(-0.152725 1.04949e-05 0)
(-0.153275 -0.00257671 0)
(-0.156206 -0.0117694 0)
(-0.160097 -0.0374965 0)
(-0.0901097 0.0297029 0)
(-0.0744653 0.00724061 0)
(-0.0693249 0.00149072 0)
(-0.0687221 0.000184767 0)
(-0.0688048 3.9758e-05 0)
(-0.0686388 0.000142066 0)
(-0.0681886 2.57929e-05 0)
(-0.0683731 -0.00127725 0)
(-0.0732728 -0.00721829 0)
(-0.0893264 -0.0305019 0)
(-0.0564986 -0.00530672 0)
(-0.0406748 -0.00692598 0)
(-0.0227634 -0.0067575 0)
(-0.00768043 -0.0045684 0)
(-0.00075735 -0.000766573 0)
(-0.123097 -0.0245009 0)
(-0.0910746 -0.0315463 0)
(-0.0546875 -0.031182 0)
(-0.0227164 -0.0228938 0)
(-0.00448773 -0.00762014 0)
(-0.153345 -0.0552308 0)
(-0.114987 -0.0714226 0)
(-0.0705073 -0.0712664 0)
(-0.0306774 -0.0547448 0)
(-0.0066015 -0.0224368 0)
(-0.150588 -0.0885396 0)
(-0.114119 -0.115588 0)
(-0.0703068 -0.115702 0)
(-0.0309686 -0.0907401 0)
(-0.00678697 -0.0399405 0)
(-0.112331 -0.113847 0)
(-0.0870508 -0.151917 0)
(-0.0543139 -0.153672 0)
(-0.0241602 -0.12224 0)
(-0.00527654 -0.055401 0)
(-0.00264667 0.0665916 0)
(-0.0129728 0.143423 0)
(-0.0279836 0.174291 0)
(-0.0374524 0.160127 0)
(-0.0304907 0.0893465 0)
(-0.000737422 0.0707877 0)
(-0.00468444 0.152186 0)
(-0.0102369 0.180675 0)
(-0.0116521 0.156289 0)
(-0.00718271 0.0733341 0)
(0.000126139 0.0716243 0)
(-0.000697649 0.154769 0)
(-0.00225617 0.181904 0)
(-0.00231743 0.153469 0)
(-0.00119099 0.0685388 0)
(0.000378627 0.0712045 0)
(0.000729569 0.155012 0)
(0.000600137 0.182101 0)
(0.000506527 0.153123 0)
(0.000205355 0.0685879 0)
(0.000392143 0.070485 0)
(0.00101707 0.15454 0)
(0.00129027 0.18207 0)
(0.00114325 0.153567 0)
(0.000467585 0.0694821 0)
(0.00030676 0.0698048 0)
(0.000745233 0.154006 0)
(0.000984486 0.18194 0)
(0.00103762 0.154019 0)
(0.000481664 0.0703794 0)
(3.20209e-05 0.0694049 0)
(-0.000322591 0.153877 0)
(-0.000519805 0.181732 0)
(0.000209905 0.15408 0)
(0.000322155 0.0712965 0)
(-0.000833486 0.069927 0)
(-0.00341656 0.155006 0)
(-0.0049052 0.181346 0)
(-0.00262964 0.152736 0)
(-0.000620851 0.0717833 0)
(-0.00317197 0.0731999 0)
(-0.0112094 0.159426 0)
(-0.0161508 0.180558 0)
(-0.0115432 0.146477 0)
(-0.00525107 0.0672094 0)
(-0.00848308 0.0835689 0)
(-0.0280198 0.172152 0)
(-0.0417187 0.181735 0)
(-0.0382605 0.132343 0)
(-0.0266492 0.0474795 0)
(-0.0296836 -0.090127 0)
(-0.0369233 -0.161061 0)
(-0.0277999 -0.174204 0)
(-0.0130759 -0.142243 0)
(-0.00275884 -0.065377 0)
(-0.00718849 -0.0745441 0)
(-0.0118517 -0.157214 0)
(-0.0105875 -0.180471 0)
(-0.00507194 -0.151012 0)
(-0.000919698 -0.0697142 0)
(-0.00136607 -0.0695586 0)
(-0.00273609 -0.154317 0)
(-0.00276054 -0.181769 0)
(-0.00111941 -0.153826 0)
(-3.97651e-05 -0.0708135 0)
(7.41929e-05 -0.0692958 0)
(0.000179301 -0.153796 0)
(0.000210093 -0.182029 0)
(0.000439615 -0.154308 0)
(0.000279494 -0.0706189 0)
(0.000423752 -0.0700201 0)
(0.000999456 -0.154106 0)
(0.00109413 -0.182025 0)
(0.000898664 -0.153982 0)
(0.000368242 -0.0700104 0)
(0.000497458 -0.0709002 0)
(0.000983809 -0.154486 0)
(0.000843357 -0.181907 0)
(0.000703648 -0.153525 0)
(0.000333814 -0.0693325 0)
(0.000286082 -0.0718426 0)
(-9.07893e-05 -0.15443 0)
(-0.00104549 -0.181719 0)
(-0.000572475 -0.15354 0)
(3.80499e-05 -0.0689239 0)
(-0.00101384 -0.0720268 0)
(-0.00393215 -0.152569 0)
(-0.00669066 -0.181365 0)
(-0.00444509 -0.155167 0)
(-0.00100345 -0.0696607 0)
(-0.00675664 -0.0657696 0)
(-0.0152679 -0.144722 0)
(-0.0205993 -0.180657 0)
(-0.0139393 -0.160943 0)
(-0.00379452 -0.0738217 0)
(-0.031076 -0.0420296 0)
(-0.0464009 -0.128145 0)
(-0.0502632 -0.182556 0)
(-0.0334716 -0.17666 0)
(-0.00993818 -0.086435 0)
(-0.0178746 0.108421 0)
(-0.0557367 0.201696 0)
(-0.0852323 0.195339 0)
(-0.0987271 0.128948 0)
(-0.112756 0.0432463 0)
(-0.0290789 0.15472 0)
(-0.0818363 0.248433 0)
(-0.112036 0.220209 0)
(-0.122699 0.141395 0)
(-0.134325 0.0576305 0)
(-0.0343327 0.2236 0)
(-0.0828159 0.29108 0)
(-0.0760654 0.227296 0)
(-0.0508009 0.140071 0)
(-0.0360375 0.0648111 0)
(0.0050504 0.277439 0)
(0.00299881 0.276537 0)
(0.0938843 0.178642 0)
(0.177123 0.0989192 0)
(0.223274 0.0450305 0)
(0.299682 0.146242 0)
(0.391977 0.124355 0)
(0.539981 0.0695565 0)
(0.636058 0.0343112 0)
(0.67856 0.0144188 0)
(-0.108547 0.00500218 0)
(-0.114841 -0.00152149 0)
(-0.112686 -0.00153947 0)
(-0.110234 -0.000870999 0)
(-0.109194 -0.000259736 0)
(-0.109254 0.000361413 0)
(-0.110597 0.00118504 0)
(-0.113993 0.00236752 0)
(-0.118321 0.00335721 0)
(-0.115802 -0.00114772 0)
(-0.147461 0.0110727 0)
(-0.157833 -0.00126449 0)
(-0.159703 -0.0027478 0)
(-0.159066 -0.0019005 0)
(-0.15856 -0.000586619 0)
(-0.158627 0.000946259 0)
(-0.159416 0.00282597 0)
(-0.16082 0.0049615 0)
(-0.160518 0.00566272 0)
(-0.1525 -0.00377358 0)
(-0.0345402 0.0200879 0)
(-0.0377369 0.00296067 0)
(-0.0393831 -0.00160625 0)
(-0.0398878 -0.00181399 0)
(-0.040026 -0.000641677 0)
(-0.0399525 0.0010082 0)
(-0.0396324 0.00284289 0)
(-0.0388555 0.00413814 0)
(-0.0368148 0.00208211 0)
(-0.0329616 -0.0119705 0)
(0.241387 0.0150307 0)
(0.245759 0.00265409 0)
(0.2458 -0.000988272 0)
(0.245014 -0.0013018 0)
(0.244472 -0.000532746 0)
(0.244565 0.000579807 0)
(0.245455 0.00178038 0)
(0.247094 0.00250918 0)
(0.248799 0.000771722 0)
(0.247497 -0.008914 0)
(0.693136 0.00444621 0)
(0.696069 0.000541813 0)
(0.69539 -0.000501677 0)
(0.694219 -0.000514358 0)
(0.693496 -0.000228405 0)
(0.693453 0.000140249 0)
(0.694184 0.000545497 0)
(0.695685 0.000864514 0)
(0.697391 0.00054661 0)
(0.69671 -0.00205358 0)
(-0.124624 -0.0338591 0)
(-0.111137 -0.123919 0)
(-0.0967619 -0.198408 0)
(-0.0637074 -0.211189 0)
(-0.0203337 -0.115457 0)
(-0.141248 -0.0480834 0)
(-0.130258 -0.136626 0)
(-0.120242 -0.225299 0)
(-0.0892876 -0.263222 0)
(-0.0318424 -0.16768 0)
(-0.0332025 -0.055071 0)
(-0.0470624 -0.134167 0)
(-0.0737778 -0.231353 0)
(-0.0837512 -0.307406 0)
(-0.0346277 -0.241554 0)
(0.233904 -0.0367253 0)
(0.192252 -0.0917384 0)
(0.110137 -0.177871 0)
(0.0154912 -0.285434 0)
(0.0132518 -0.290185 0)
(0.686125 -0.0103186 0)
(0.649266 -0.0288984 0)
(0.557633 -0.0644621 0)
(0.406788 -0.122622 0)
(0.307723 -0.148201 0)
)
;

boundaryField
{
    movingWall
    {
        type            fixedValue;
        value           uniform (1 0 0);
    }
    fixedWalls
    {
        type            noSlip;
    }
    frontAndBack
    {
        type            empty;
    }
}


// ************************************************************************* //
