/*--------------------------------*- C++ -*----------------------------------*\
| =========                 |                                                 |
| \\      /  F ield         | OpenFOAM: The Open Source CFD Toolbox           |
|  \\    /   O peration     | Version:  v1712                                 |
|   \\  /    A nd           | Web:      www.OpenFOAM.com                      |
|    \\/     M anipulation  |                                                 |
\*---------------------------------------------------------------------------*/
FoamFile
{
    version     2.0;
    format      ascii;
    class       surfaceScalarField;
    location    "0.3";
    object      phi;
}
// * * * * * * * * * * * * * * * * * * * * * * * * * * * * * * * * * * * * * //

dimensions      [0 3 -1 0 0 0 0];
oriented        oriented;


internalField   nonuniform List<scalar> 
540
(
-1.44844e-07
1.44821e-07
-7.33907e-07
5.89063e-07
-1.55985e-06
8.25942e-07
-2.39715e-06
8.37297e-07
6.49822e-07
-3.04697e-06
-5.97218e-07
7.4204e-07
-1.93539e-06
1.92723e-06
-3.6391e-06
2.52965e-06
-5.3338e-06
2.532e-06
1.9641e-06
-6.64808e-06
-8.44555e-07
1.5866e-06
-2.56395e-06
3.64663e-06
-4.67171e-06
4.63741e-06
-6.73437e-06
4.59465e-06
3.48731e-06
-8.25757e-06
-8.58017e-07
2.44461e-06
-2.57701e-06
5.36562e-06
-4.65285e-06
6.71324e-06
-6.66126e-06
6.60307e-06
4.80266e-06
-7.97661e-06
-6.62008e-07
3.10662e-06
-1.99686e-06
6.70048e-06
-3.53798e-06
8.25436e-06
-4.85808e-06
7.92316e-06
-5.57869e-06
5.52328e-06
-3.39313e-06
3.46164e-07
-3.52262e-06
1.29487e-07
-3.55259e-06
2.99734e-08
-3.55297e-06
3.81704e-10
-3.5546e-06
1.63e-09
-3.56661e-06
1.20039e-08
-3.58151e-06
1.48982e-08
-3.56756e-06
-1.3946e-08
-3.45106e-06
-1.16503e-07
-3.43917e-07
-3.10714e-06
-7.34727e-06
1.04536e-06
-7.63258e-06
4.14797e-07
-7.72615e-06
1.23544e-07
-7.75062e-06
2.48487e-08
-7.75925e-06
1.02657e-08
-7.76678e-06
1.95306e-08
-7.75893e-06
7.04452e-09
-7.68134e-06
-9.1534e-08
-7.4057e-06
-3.9214e-07
-1.048e-06
-6.70162e-06
-8.87199e-06
1.65977e-06
-9.05168e-06
5.94489e-07
-9.09588e-06
1.67748e-07
-9.10501e-06
3.39805e-08
-9.10675e-06
1.20033e-08
-9.10692e-06
1.96941e-08
-9.09988e-06
1.02973e-11
-9.05764e-06
-1.33775e-07
-8.87772e-06
-5.72061e-07
-1.67118e-06
-8.25454e-06
-7.92637e-06
1.60953e-06
-7.75568e-06
4.23801e-07
-7.67952e-06
9.1585e-08
-7.65637e-06
1.0838e-08
-7.64769e-06
3.31728e-09
-7.64131e-06
1.33191e-08
-7.64915e-06
7.84522e-09
-7.71104e-06
-7.18819e-08
-7.87271e-06
-4.10397e-07
-1.62172e-06
-7.92217e-06
-3.96916e-06
-3.54536e-06
-3.45378e-06
-3.44294e-06
-3.43962e-06
-3.4263e-06
-3.41845e-06
-3.49034e-06
-3.90073e-06
-5.52245e-06
-2.44478e-06
-6.62366e-07
-1.58668e-06
-8.58097e-07
-7.42109e-07
-8.44572e-07
-1.44866e-07
-5.97242e-07
-1.44866e-07
-5.36613e-06
-1.99785e-06
-3.6469e-06
-2.57733e-06
-1.9274e-06
-2.56407e-06
-5.89159e-07
-1.93549e-06
-7.34024e-07
-6.71343e-06
-3.53896e-06
-4.63753e-06
-4.65323e-06
-2.52975e-06
-4.67185e-06
-8.26035e-07
-3.6392e-06
-1.56006e-06
-6.60267e-06
-4.85846e-06
-4.59424e-06
-6.66166e-06
-2.53167e-06
-6.73441e-06
-8.37262e-07
-5.33361e-06
-2.39732e-06
-4.80183e-06
-5.57907e-06
-3.48573e-06
-7.97777e-06
-1.96263e-06
-8.25751e-06
-6.49342e-07
-6.6469e-06
-3.04667e-06
-3.42718e-07
3.44934e-06
-1.0451e-06
7.40286e-06
-1.66829e-06
8.87755e-06
-1.6206e-06
7.87547e-06
3.90268e-06
-1.13316e-07
3.56265e-06
-3.85031e-07
7.67458e-06
-5.64782e-07
9.0573e-06
-4.07041e-07
7.71773e-06
3.49563e-06
-7.02307e-09
3.56968e-06
-7.65698e-08
7.74412e-06
-1.18188e-07
9.09892e-06
-6.4078e-08
7.66362e-06
3.43156e-06
2.86013e-08
3.54108e-06
3.42859e-08
7.73844e-06
2.89223e-08
9.10428e-06
2.41458e-08
7.6684e-06
3.4557e-06
3.40772e-08
3.507e-06
5.93873e-08
7.71313e-06
6.32685e-08
9.1004e-06
4.12113e-08
7.69046e-06
3.49691e-06
2.67051e-08
3.48029e-06
4.38424e-08
7.69599e-06
5.22323e-08
9.09201e-06
4.00377e-08
7.70265e-06
3.53695e-06
-1.2613e-09
3.48156e-06
-2.42588e-08
7.71899e-06
-9.59723e-09
9.07735e-06
2.38766e-08
7.66918e-06
3.56083e-06
-8.58219e-08
3.56738e-06
-2.21538e-07
7.85471e-06
-2.01555e-07
9.05737e-06
-4.5091e-08
7.51271e-06
3.51574e-06
-3.11983e-07
3.87936e-06
-7.23661e-07
8.26638e-06
-7.36783e-07
9.07049e-06
-3.05102e-07
7.08103e-06
3.21064e-06
-8.22449e-07
4.70181e-06
-1.82693e-06
9.27086e-06
-2.10572e-06
9.34928e-06
-1.38708e-06
6.3624e-06
1.82355e-06
-1.60767e-06
-3.9714e-06
-1.65529e-06
-7.93015e-06
-1.04099e-06
-8.87181e-06
-3.44443e-07
-7.34344e-06
-3.39111e-06
-4.18782e-07
-3.55262e-06
-5.83475e-07
-7.76546e-06
-4.04084e-07
-9.0512e-06
-1.24853e-07
-7.62267e-06
-3.51596e-06
-8.00206e-08
-3.4726e-06
-1.44265e-07
-7.70121e-06
-1.0091e-07
-9.09456e-06
-1.96216e-08
-7.70396e-06
-3.53558e-06
1.26708e-08
-3.48527e-06
9.44288e-09
-7.69799e-06
1.64577e-08
-9.10157e-06
2.00636e-08
-7.70756e-06
-3.51552e-06
3.70377e-08
-3.52231e-06
5.42091e-08
-7.71516e-06
5.12349e-08
-9.0986e-06
3.13407e-08
-7.68767e-06
-3.48418e-06
4.01922e-08
-3.5625e-06
4.73241e-08
-7.72229e-06
3.9356e-08
-9.09063e-06
2.73134e-08
-7.67563e-06
-3.45686e-06
1.79343e-08
-3.58044e-06
-3.0442e-08
-7.67391e-06
-4.36761e-08
-9.0774e-06
-5.33492e-09
-7.71397e-06
-3.4622e-06
-8.01293e-08
-3.50031e-06
-2.79534e-07
-7.47451e-06
-2.92769e-07
-9.06416e-06
-1.10817e-07
-7.89592e-06
-3.57302e-06
-4.22268e-07
-3.07804e-06
-9.43323e-07
-6.95345e-06
-9.06205e-07
-9.10128e-06
-3.86334e-07
-8.41579e-06
-3.95935e-06
-1.68767e-06
-1.39037e-06
-2.52646e-06
-6.11466e-06
-2.1833e-06
-9.44444e-06
-9.80873e-07
-9.61822e-06
-4.94022e-06
-1.70425e-06
6.40605e-06
-3.61768e-06
1.11843e-05
-4.63442e-06
1.0366e-05
-4.98616e-06
6.71413e-06
2.47333e-06
-5.63593e-06
-2.67401e-06
9.08006e-06
-4.95695e-06
1.34672e-05
-5.88914e-06
1.12982e-05
-6.33063e-06
7.15563e-06
3.19925e-06
-7.05656e-06
-3.16822e-06
1.22483e-05
-4.07295e-06
1.4372e-05
-3.14883e-06
1.03741e-05
-2.12021e-06
6.12701e-06
2.84618e-06
-1.76714e-06
-1.21123e-06
1.34595e-05
2.55476e-06
1.0606e-05
7.00374e-06
5.92509e-06
1.00979e-05
3.03287e-06
1.30614e-06
1.16379e-05
1.34595e-05
2.40655e-05
2.99906e-05
3.30235e-05
3.43296e-05
-5.81714e-06
1.81209e-07
-5.67266e-06
-1.44482e-07
-5.54964e-06
-1.2302e-07
-5.47864e-06
-7.09947e-08
-5.4571e-06
-2.15399e-08
-5.48775e-06
3.06452e-08
-5.58605e-06
9.83034e-08
-5.77954e-06
1.93491e-07
-6.07637e-06
2.96834e-07
1.05771e-07
-6.18215e-06
-7.74083e-06
8.65487e-07
-7.94834e-06
6.30295e-08
-7.96328e-06
-1.08088e-07
-7.93874e-06
-9.55284e-08
-7.92835e-06
-3.19314e-08
-7.94823e-06
5.05251e-08
-7.99649e-06
1.46561e-07
-8.03646e-06
2.33464e-07
-7.92815e-06
1.88523e-07
-4.52712e-07
-7.36967e-06
-1.83989e-06
9.38243e-07
-1.93635e-06
1.59487e-07
-1.98202e-06
-6.24166e-08
-1.99838e-06
-7.91721e-08
-2.00023e-06
-3.00784e-08
-1.99046e-06
4.07525e-08
-1.96214e-06
1.18241e-07
-1.89615e-06
1.67477e-07
-1.76695e-06
5.93228e-08
-5.73502e-07
-1.64616e-06
1.21739e-05
4.02255e-07
1.2285e-05
4.83531e-08
1.22686e-05
-4.59532e-08
1.22352e-05
-4.57628e-08
1.22236e-05
-1.85302e-08
1.22478e-05
1.65458e-08
1.23114e-05
5.46449e-08
1.23969e-05
8.1964e-08
1.24155e-05
4.077e-08
-2.35557e-07
1.20775e-05
3.47319e-05
3.47802e-05
3.47343e-05
3.46885e-05
3.467e-05
3.46865e-05
3.47412e-05
3.48231e-05
3.48639e-05
3.46283e-05
-5.56433e-06
-2.00819e-06
-5.22637e-06
-6.45262e-06
-4.11287e-06
-1.05579e-05
-1.95073e-06
-1.17804e-05
-6.89096e-06
-6.6881e-06
-2.68975e-06
-6.29086e-06
-6.84987e-06
-5.36258e-06
-1.14862e-05
-2.93511e-06
-1.42078e-05
-9.82607e-06
-1.94888e-06
-2.38704e-06
-3.01144e-06
-5.7873e-06
-4.05963e-06
-1.0438e-05
-3.25903e-06
-1.50084e-05
-1.30851e-05
1.07568e-05
-1.06633e-06
7.78252e-06
-2.81299e-06
3.25196e-06
-5.90745e-06
-8.27354e-07
-1.09291e-05
-1.39124e-05
3.3562e-05
3.0749e-05
2.48416e-05
1.39124e-05
)
;

boundaryField
{
    movingWall
    {
        type            calculated;
        value           uniform 0;
    }
    fixedWalls
    {
        type            calculated;
        value           uniform 0;
    }
    frontAndBack
    {
        type            empty;
        value           nonuniform 0();
    }
}


// ************************************************************************* //
