/*--------------------------------*- C++ -*----------------------------------*\
| =========                 |                                                 |
| \\      /  F ield         | OpenFOAM: The Open Source CFD Toolbox           |
|  \\    /   O peration     | Version:  v1712                                 |
|   \\  /    A nd           | Web:      www.OpenFOAM.com                      |
|    \\/     M anipulation  |                                                 |
\*---------------------------------------------------------------------------*/
FoamFile
{
    version     2.0;
    format      ascii;
    class       volScalarField;
    location    "0.5";
    object      p;
}
// * * * * * * * * * * * * * * * * * * * * * * * * * * * * * * * * * * * * * //

dimensions      [0 2 -2 0 0 0 0];


internalField   nonuniform List<scalar> 
300
(
2.4913e-06
-0.0303606
-0.0320478
0.00888752
0.0919396
0.0304923
1.67411e-05
0.00338115
0.044094
0.120833
0.0312831
-0.00463891
-0.00176988
0.0380666
0.116394
-0.0128586
-0.0492575
-0.0474214
-0.009326
0.0791541
-0.10136
-0.132022
-0.13347
-0.108592
-0.0218762
0.206077
0.329548
0.45143
0.569871
0.685965
0.801487
0.918469
1.039
1.16453
1.29343
0.227783
0.342686
0.457926
0.572643
0.68682
0.800943
0.915784
1.03201
1.15012
1.26986
0.233181
0.349613
0.462546
0.575062
0.687438
0.799725
0.912208
1.02501
1.13892
1.25855
0.234625
0.358672
0.46831
0.577916
0.68814
0.798251
0.907851
1.01593
1.12305
1.24583
0.25611
0.384602
0.480201
0.582484
0.689376
0.797068
0.902739
1.0019
1.09102
1.21082
1.41391
1.5024
1.54654
1.54575
1.51526
1.38321
1.46598
1.51061
1.51527
1.4849
1.38174
1.46781
1.51347
1.51864
1.48322
1.4066
1.50589
1.55331
1.55936
1.52418
1.49325
1.59435
1.63163
1.6361
1.60728
-0.221864
-0.245353
-0.256656
-0.269371
-0.304275
-0.350763
-0.365037
-0.376282
-0.392207
-0.42409
-0.476175
-0.483003
-0.490187
-0.49948
-0.513352
-0.596222
-0.598822
-0.602968
-0.607989
-0.613077
-0.711745
-0.712774
-0.715393
-0.718509
-0.720558
-0.823681
-0.825113
-0.827455
-0.830323
-0.832636
-0.932228
-0.936187
-0.939061
-0.942933
-0.949015
-1.03735
-1.04669
-1.05008
-1.05623
-1.07366
-1.14045
-1.15858
-1.16025
-1.17101
-1.2195
-1.25016
-1.27579
-1.26334
-1.26653
-1.35378
1.77114
1.74981
1.74841
1.74305
1.72149
1.89959
1.87391
1.86484
1.85791
1.84502
1.99532
1.98376
1.97777
1.97295
1.96679
2.09837
2.09396
2.09027
2.08711
2.08462
2.20773
2.20557
2.20259
2.19998
2.19867
2.32151
2.31833
2.3146
2.31139
2.30913
2.44028
2.43202
2.42614
2.42133
2.41551
2.56888
2.54705
2.53724
2.53046
2.51746
2.72038
2.66411
2.64772
2.64116
2.61692
2.85039
2.75617
2.74887
2.7578
2.72512
-1.39842
-1.41309
-1.35093
-1.27194
-1.19883
-1.66373
-1.61876
-1.47273
-1.29634
-1.10289
-2.18444
-1.93693
-1.64326
-1.36821
-1.09716
-3.26418
-2.38081
-1.79165
-1.41124
-1.0927
-5.12561
-2.83402
-1.7731
-1.32768
-1.02514
-0.937552
-0.528243
-0.157609
0.186772
0.523607
0.858553
1.19488
1.53941
1.9151
2.34462
-0.831497
-0.489781
-0.147311
0.189533
0.524551
0.858968
1.19362
1.53031
1.87504
2.22589
-0.797549
-0.471106
-0.138988
0.193445
0.526022
0.85839
1.19005
1.52045
1.84963
2.17475
-0.779675
-0.458478
-0.132151
0.196796
0.52723
0.857886
1.18727
1.51367
1.83558
2.15275
-0.73899
-0.43948
-0.125225
0.198766
0.527717
0.858132
1.187
1.51078
1.82501
2.12665
2.64866
2.7387
2.8273
2.89597
2.87977
2.51701
2.73179
2.93404
3.10562
3.16671
2.48136
2.77453
3.09136
3.43795
3.73632
2.47036
2.81562
3.25447
3.93001
4.91375
2.42479
2.76539
3.29031
4.46166
6.86598
)
;

boundaryField
{
    movingWall
    {
        type            zeroGradient;
    }
    fixedWalls
    {
        type            zeroGradient;
    }
    frontAndBack
    {
        type            empty;
    }
}


// ************************************************************************* //
