/*--------------------------------*- C++ -*----------------------------------*\
| =========                 |                                                 |
| \\      /  F ield         | OpenFOAM: The Open Source CFD Toolbox           |
|  \\    /   O peration     | Version:  v1712                                 |
|   \\  /    A nd           | Web:      www.OpenFOAM.com                      |
|    \\/     M anipulation  |                                                 |
\*---------------------------------------------------------------------------*/
FoamFile
{
    version     2.0;
    format      ascii;
    class       volVectorField;
    location    "0.5";
    object      U;
}
// * * * * * * * * * * * * * * * * * * * * * * * * * * * * * * * * * * * * * //

dimensions      [0 1 -1 0 0 0 0];


internalField   nonuniform List<vector> 
300
(
(-0.000766416 0.000756861 0)
(-0.00761878 0.00448665 0)
(-0.0224332 0.00660027 0)
(-0.0399355 0.00678671 0)
(-0.0553991 0.00528039 0)
(-0.00456829 0.00767928 0)
(-0.0228925 0.0227137 0)
(-0.0547421 0.0306754 0)
(-0.0907392 0.0309723 0)
(-0.122249 0.0241813 0)
(-0.00675753 0.0227621 0)
(-0.0311807 0.0546836 0)
(-0.0712634 0.0705057 0)
(-0.1157 0.0703157 0)
(-0.153672 0.0543496 0)
(-0.0069255 0.0406731 0)
(-0.0315421 0.091068 0)
(-0.0714149 0.114984 0)
(-0.115581 0.114127 0)
(-0.151906 0.0870765 0)
(-0.00530347 0.0564939 0)
(-0.024486 0.123083 0)
(-0.055208 0.153342 0)
(-0.0885264 0.150598 0)
(-0.113844 0.112344 0)
(-0.065393 0.002775 0)
(-0.0697864 0.000965814 0)
(-0.0710258 0.000147446 0)
(-0.0711325 -6.49143e-05 0)
(-0.0710752 -2.16273e-06 0)
(-0.0712105 0.00014369 0)
(-0.071558 0.000229952 0)
(-0.0717755 5.00556e-05 0)
(-0.0708444 -0.000770396 0)
(-0.0666093 -0.00265859 0)
(-0.142284 0.0131421 0)
(-0.151131 0.00523895 0)
(-0.154118 0.00147876 0)
(-0.154927 0.000225781 0)
(-0.155128 0.000120313 0)
(-0.15529 0.000350511 0)
(-0.155423 0.000286421 0)
(-0.154966 -0.000938543 0)
(-0.152271 -0.00479681 0)
(-0.143457 -0.0130177 0)
(-0.174207 0.0279017 0)
(-0.180476 0.0108336 0)
(-0.181783 0.00327528 0)
(-0.182069 0.000719274 0)
(-0.182135 0.000270422 0)
(-0.182153 0.000404662 0)
(-0.182131 -1.15488e-05 0)
(-0.181914 -0.0025946 0)
(-0.180679 -0.0103984 0)
(-0.174295 -0.0280497 0)
(-0.161022 0.0369936 0)
(-0.157096 0.0120293 0)
(-0.15403 0.00312483 0)
(-0.153192 0.000560544 0)
(-0.153018 0.000181807 0)
(-0.152865 0.000349194 0)
(-0.152725 1.05042e-05 0)
(-0.153275 -0.00257673 0)
(-0.156206 -0.0117695 0)
(-0.160097 -0.0374966 0)
(-0.0901098 0.0297029 0)
(-0.0744654 0.00724062 0)
(-0.069325 0.00149073 0)
(-0.0687222 0.000184771 0)
(-0.0688049 3.97659e-05 0)
(-0.0686389 0.000142077 0)
(-0.0681887 2.58007e-05 0)
(-0.0683732 -0.00127726 0)
(-0.0732729 -0.00721832 0)
(-0.0893265 -0.030502 0)
(-0.0564987 -0.0053067 0)
(-0.0406749 -0.00692596 0)
(-0.0227634 -0.00675749 0)
(-0.00768042 -0.0045684 0)
(-0.000757343 -0.000766575 0)
(-0.123097 -0.0245009 0)
(-0.0910748 -0.0315463 0)
(-0.0546877 -0.031182 0)
(-0.0227164 -0.0228938 0)
(-0.00448774 -0.00762015 0)
(-0.153346 -0.0552309 0)
(-0.114987 -0.0714227 0)
(-0.0705075 -0.0712665 0)
(-0.0306775 -0.0547449 0)
(-0.00660153 -0.0224368 0)
(-0.150588 -0.0885398 0)
(-0.114119 -0.115588 0)
(-0.0703069 -0.115702 0)
(-0.0309687 -0.0907402 0)
(-0.00678701 -0.0399406 0)
(-0.112331 -0.113847 0)
(-0.0870509 -0.151917 0)
(-0.054314 -0.153672 0)
(-0.0241603 -0.12224 0)
(-0.00527656 -0.055401 0)
(-0.00264667 0.0665917 0)
(-0.0129728 0.143424 0)
(-0.0279836 0.174292 0)
(-0.0374525 0.160128 0)
(-0.0304908 0.0893467 0)
(-0.000737418 0.0707879 0)
(-0.00468444 0.152187 0)
(-0.0102369 0.180675 0)
(-0.0116522 0.156289 0)
(-0.00718273 0.0733343 0)
(0.000126146 0.0716245 0)
(-0.000697637 0.15477 0)
(-0.00225617 0.181904 0)
(-0.00231743 0.15347 0)
(-0.001191 0.0685389 0)
(0.000378632 0.0712047 0)
(0.000729582 0.155013 0)
(0.00060015 0.182101 0)
(0.000506533 0.153124 0)
(0.000205355 0.068588 0)
(0.000392143 0.0704851 0)
(0.00101707 0.154541 0)
(0.00129029 0.18207 0)
(0.00114327 0.153568 0)
(0.00046759 0.0694822 0)
(0.000306754 0.0698049 0)
(0.000745225 0.154006 0)
(0.000984493 0.18194 0)
(0.00103763 0.154019 0)
(0.000481672 0.0703795 0)
(3.20118e-05 0.069405 0)
(-0.000322608 0.153877 0)
(-0.00051981 0.181732 0)
(0.000209913 0.15408 0)
(0.000322161 0.0712966 0)
(-0.000833492 0.0699271 0)
(-0.00341658 0.155006 0)
(-0.00490522 0.181346 0)
(-0.00262964 0.152736 0)
(-0.000620848 0.0717834 0)
(-0.00317197 0.0732001 0)
(-0.0112094 0.159426 0)
(-0.0161508 0.180559 0)
(-0.0115432 0.146478 0)
(-0.00525107 0.0672095 0)
(-0.00848307 0.083569 0)
(-0.0280198 0.172153 0)
(-0.0417186 0.181735 0)
(-0.0382605 0.132344 0)
(-0.0266492 0.0474797 0)
(-0.0296836 -0.0901271 0)
(-0.0369233 -0.161061 0)
(-0.0277999 -0.174205 0)
(-0.0130759 -0.142243 0)
(-0.00275885 -0.065377 0)
(-0.0071885 -0.0745442 0)
(-0.0118517 -0.157214 0)
(-0.0105875 -0.180471 0)
(-0.00507193 -0.151012 0)
(-0.000919693 -0.0697143 0)
(-0.00136607 -0.0695587 0)
(-0.0027361 -0.154318 0)
(-0.00276053 -0.181769 0)
(-0.00111939 -0.153827 0)
(-3.9753e-05 -0.0708137 0)
(7.41803e-05 -0.0692959 0)
(0.000179279 -0.153797 0)
(0.000210089 -0.182029 0)
(0.00043963 -0.154308 0)
(0.000279504 -0.070619 0)
(0.000423744 -0.0700201 0)
(0.000999436 -0.154106 0)
(0.00109412 -0.182026 0)
(0.000898662 -0.153982 0)
(0.000368245 -0.0700105 0)
(0.000497457 -0.0709003 0)
(0.0009838 -0.154487 0)
(0.00084334 -0.181908 0)
(0.000703634 -0.153525 0)
(0.000333809 -0.0693326 0)
(0.000286087 -0.0718427 0)
(-9.07848e-05 -0.15443 0)
(-0.0010455 -0.181719 0)
(-0.000572492 -0.15354 0)
(3.8042e-05 -0.068924 0)
(-0.00101383 -0.072027 0)
(-0.00393214 -0.152569 0)
(-0.00669066 -0.181365 0)
(-0.0044451 -0.155168 0)
(-0.00100346 -0.0696608 0)
(-0.00675663 -0.0657697 0)
(-0.0152679 -0.144722 0)
(-0.0205992 -0.180657 0)
(-0.0139393 -0.160944 0)
(-0.00379452 -0.0738218 0)
(-0.031076 -0.0420297 0)
(-0.0464009 -0.128145 0)
(-0.0502632 -0.182556 0)
(-0.0334716 -0.17666 0)
(-0.00993817 -0.0864351 0)
(-0.0178746 0.108421 0)
(-0.0557367 0.201696 0)
(-0.0852322 0.195339 0)
(-0.0987269 0.128948 0)
(-0.112756 0.0432466 0)
(-0.0290788 0.154721 0)
(-0.0818362 0.248433 0)
(-0.112035 0.220209 0)
(-0.122699 0.141396 0)
(-0.134325 0.0576306 0)
(-0.0343327 0.2236 0)
(-0.0828158 0.291081 0)
(-0.0760653 0.227296 0)
(-0.0508007 0.140071 0)
(-0.0360372 0.0648112 0)
(0.0050504 0.277439 0)
(0.00299884 0.276537 0)
(0.0938844 0.178642 0)
(0.177123 0.0989193 0)
(0.223274 0.0450306 0)
(0.299682 0.146242 0)
(0.391977 0.124355 0)
(0.539981 0.0695565 0)
(0.636058 0.0343112 0)
(0.67856 0.0144188 0)
(-0.108546 0.00500224 0)
(-0.114841 -0.00152147 0)
(-0.112686 -0.00153947 0)
(-0.110234 -0.000871002 0)
(-0.109194 -0.000259743 0)
(-0.109253 0.000361406 0)
(-0.110597 0.00118504 0)
(-0.113993 0.00236752 0)
(-0.118321 0.0033572 0)
(-0.115802 -0.00114776 0)
(-0.14746 0.0110727 0)
(-0.157833 -0.00126445 0)
(-0.159702 -0.00274779 0)
(-0.159066 -0.0019005 0)
(-0.15856 -0.000586628 0)
(-0.158626 0.000946248 0)
(-0.159415 0.00282596 0)
(-0.16082 0.00496149 0)
(-0.160518 0.00566271 0)
(-0.1525 -0.00377363 0)
(-0.0345398 0.020088 0)
(-0.0377365 0.0029607 0)
(-0.0393827 -0.00160624 0)
(-0.0398874 -0.00181399 0)
(-0.0400257 -0.000641674 0)
(-0.0399522 0.0010082 0)
(-0.039632 0.00284289 0)
(-0.0388552 0.00413813 0)
(-0.0368144 0.00208209 0)
(-0.0329613 -0.0119705 0)
(0.241388 0.0150307 0)
(0.245759 0.00265409 0)
(0.2458 -0.000988271 0)
(0.245014 -0.00130179 0)
(0.244472 -0.000532737 0)
(0.244566 0.000579817 0)
(0.245455 0.00178039 0)
(0.247095 0.00250918 0)
(0.248799 0.000771712 0)
(0.247498 -0.00891403 0)
(0.693136 0.0044462 0)
(0.696069 0.000541808 0)
(0.69539 -0.00050168 0)
(0.694219 -0.000514357 0)
(0.693496 -0.000228401 0)
(0.693454 0.000140255 0)
(0.694184 0.000545502 0)
(0.695685 0.000864516 0)
(0.697392 0.000546609 0)
(0.69671 -0.00205359 0)
(-0.124624 -0.0338593 0)
(-0.111137 -0.123919 0)
(-0.0967618 -0.198408 0)
(-0.0637073 -0.211189 0)
(-0.0203336 -0.115457 0)
(-0.141248 -0.0480835 0)
(-0.130258 -0.136626 0)
(-0.120242 -0.225299 0)
(-0.0892876 -0.263222 0)
(-0.0318424 -0.16768 0)
(-0.0332022 -0.0550711 0)
(-0.0470622 -0.134167 0)
(-0.0737776 -0.231353 0)
(-0.0837511 -0.307406 0)
(-0.0346277 -0.241554 0)
(0.233904 -0.0367253 0)
(0.192252 -0.0917384 0)
(0.110137 -0.177871 0)
(0.0154912 -0.285434 0)
(0.0132518 -0.290185 0)
(0.686125 -0.0103187 0)
(0.649266 -0.0288984 0)
(0.557633 -0.0644621 0)
(0.406788 -0.122622 0)
(0.307723 -0.148201 0)
)
;

boundaryField
{
    movingWall
    {
        type            fixedValue;
        value           uniform (1 0 0);
    }
    fixedWalls
    {
        type            noSlip;
    }
    frontAndBack
    {
        type            empty;
    }
}


// ************************************************************************* //
